VARIABLES = "X"
 "Y"
 "TA"
ZONE
DT=(DOUBLE,DOUBLE,DOUBLE)
                    0.5                       0                       0 
                    0.5     0.00200400801603206   -1.60320640815971E-05 
                    0.5     0.00400801603206413   -3.20641281631941E-05 
                    0.5     0.00601202404809619   -4.80961922447912E-05 
                    0.5     0.00801603206412826   -6.41282563263883E-05 
                    0.5      0.0100200400801603   -8.01603204079853E-05 
                    0.5      0.0120240480961924   -9.61923844895824E-05 
                    0.5      0.0140280561122244   -0.000112224448571179 
                    0.5      0.0160320641282565   -0.000128256512652777 
                    0.5      0.0180360721442886   -0.000144288576734374 
                    0.5      0.0200400801603206   -0.000160316632782951 
                    0.5      0.0220440881763527   -0.000176148297448731 
                    0.5      0.0240480961923848    -0.00019197996211451 
                    0.5      0.0260521042084168    -0.00020781162678029 
                    0.5      0.0280561122244489   -0.000223643291446069 
                    0.5       0.030060120240481   -0.000239474956111849 
                    0.5       0.032064128256513   -0.000255306620777628 
                    0.5      0.0340681362725451   -0.000271138285443407 
                    0.5      0.0360721442885772   -0.000286969950109187 
                    0.5      0.0380761523046092   -0.000302801614774967 
                    0.5      0.0400801603206413   -0.000318609231009329 
                    0.5      0.0420841683366733   -0.000333839691595225 
                    0.5      0.0440881763527054    -0.00034907015218112 
                    0.5      0.0460921843687375   -0.000364300612767016 
                    0.5      0.0480961923847695   -0.000379531073352912 
                    0.5      0.0501002004008016   -0.000394761533938807 
                    0.5      0.0521042084168337   -0.000409991994524703 
                    0.5      0.0541082164328657   -0.000425222455110598 
                    0.5      0.0561122244488978   -0.000440452915696494 
                    0.5      0.0581162324649299    -0.00045568337628239 
                    0.5      0.0601202404809619   -0.000470871752434093 
                    0.5       0.062124248496994   -0.000485400813606519 
                    0.5       0.064128256513026   -0.000499929874778946 
                    0.5      0.0661322645290581   -0.000514458935951372 
                    0.5      0.0681362725450902   -0.000528987997123799 
                    0.5      0.0701402805611222   -0.000543517058296225 
                    0.5      0.0721442885771543   -0.000558046119468651 
                    0.5      0.0741482965931864   -0.000572575180641077 
                    0.5      0.0761523046092184   -0.000587104241813504 
                    0.5      0.0781563126252505    -0.00060163330298593 
                    0.5      0.0801603206412826   -0.000616090218544391 
                    0.5      0.0821643286573146   -0.000629717469600611 
                    0.5      0.0841683366733467   -0.000643344720656831 
                    0.5      0.0861723446893788    -0.00065697197171305 
                    0.5      0.0881763527054108    -0.00067059922276927 
                    0.5      0.0901803607214429   -0.000684226473825489 
                    0.5      0.0921843687374749   -0.000697853724881708 
                    0.5       0.094188376753507   -0.000711480975937928 
                    0.5      0.0961923847695391   -0.000725108226994147 
                    0.5      0.0981963927855711   -0.000738735478050367 
                    0.5       0.100200400801603   -0.000752232470209214 
                    0.5       0.102204408817635   -0.000764557122605999 
                    0.5       0.104208416833667   -0.000776881775002784 
                    0.5       0.106212424849699   -0.000789206427399569 
                    0.5       0.108216432865731   -0.000801531079796354 
                    0.5       0.110220440881764   -0.000813855732193139 
                    0.5       0.112224448897796   -0.000826180384589924 
                    0.5       0.114228456913828    -0.00083850503698671 
                    0.5        0.11623246492986   -0.000850829689383495 
                    0.5       0.118236472945892    -0.00086315434178028 
                    0.5       0.120240480961924   -0.000875322679492584 
                    0.5       0.122244488977956   -0.000886344724047355 
                    0.5       0.124248496993988   -0.000897366768602126 
                    0.5        0.12625250501002   -0.000908388813156896 
                    0.5       0.128256513026052   -0.000919410857711667 
                    0.5       0.130260521042084   -0.000930432902266438 
                    0.5       0.132264529058116   -0.000941454946821208 
                    0.5       0.134268537074148   -0.000952476991375979 
                    0.5        0.13627254509018    -0.00096349903593075 
                    0.5       0.138276553106212   -0.000974521080485521 
                    0.5       0.140280561122244   -0.000985318675438291 
                    0.5       0.142284569138277   -0.000994737505144207 
                    0.5       0.144288577154309    -0.00100415633485012 
                    0.5       0.146292585170341    -0.00101357516455604 
                    0.5       0.148296593186373    -0.00102299399426195 
                    0.5       0.150300601202405    -0.00103241282396787 
                    0.5       0.152304609218437    -0.00104183165367378 
                    0.5       0.154308617234469     -0.0010512504833797 
                    0.5       0.156312625250501    -0.00106066931308561 
                    0.5       0.158316633266533    -0.00107008814279153 
                    0.5       0.160320641282565    -0.00107923442504829 
                    0.5       0.162324649298597    -0.00108694985219592 
                    0.5       0.164328657314629    -0.00109466527934356 
                    0.5       0.166332665330661    -0.00110238070649119 
                    0.5       0.168336673346693    -0.00111009613363882 
                    0.5       0.170340681362725    -0.00111781156078646 
                    0.5       0.172344689378758    -0.00112552698793409 
                    0.5        0.17434869739479    -0.00113324241508172 
                    0.5       0.176352705410822    -0.00114095784222936 
                    0.5       0.178356713426854    -0.00114867326937699 
                    0.5       0.180360721442886    -0.00115606405635758 
                    0.5       0.182364729458918    -0.00116197589125913 
                    0.5        0.18436873747495    -0.00116788772616069 
                    0.5       0.186372745490982    -0.00117379956106225 
                    0.5       0.188376753507014     -0.0011797113959638 
                    0.5       0.190380761523046    -0.00118562323086536 
                    0.5       0.192384769539078    -0.00119153506576691 
                    0.5        0.19438877755511    -0.00119744690066847 
                    0.5       0.196392785571142    -0.00120335873557002 
                    0.5       0.198396793587174    -0.00120927057047158 
                    0.5       0.200400801603206    -0.00121480164370259 
                    0.5       0.202404809619238    -0.00121880965609522 
                    0.5       0.204408817635271    -0.00122281766848785 
                    0.5       0.206412825651303    -0.00122682568088047 
                    0.5       0.208416833667335     -0.0012308336932731 
                    0.5       0.210420841683367    -0.00123484170566573 
                    0.5       0.212424849699399    -0.00123884971805835 
                    0.5       0.214428857715431    -0.00124285773045098 
                    0.5       0.216432865731463     -0.0012468657428436 
                    0.5       0.218436873747495    -0.00125087375523623 
                    0.5       0.220440881763527    -0.00125444088635672 
                    0.5       0.222444889779559    -0.00125644489838546 
                    0.5       0.224448897795591    -0.00125844891041421 
                    0.5       0.226452905811623    -0.00126045292244295 
                    0.5       0.228456913827655     -0.0012624569344717 
                    0.5       0.230460921843687    -0.00126446094650044 
                    0.5       0.232464929859719    -0.00126646495852919 
                    0.5       0.234468937875752    -0.00126846897055793 
                    0.5       0.236472945891784    -0.00127047298258668 
                    0.5       0.238476953907816    -0.00127247699461542 
                    0.5       0.240480961923848    -0.00127400003839284 
                    0.5        0.24248496993988    -0.00127400003839284 
                    0.5       0.244488977955912    -0.00127400003839284 
                    0.5       0.246492985971944    -0.00127400003839284 
                    0.5       0.248496993987976    -0.00127400003839284 
                    0.5       0.250501002004008    -0.00127400003839284 
                    0.5        0.25250501002004    -0.00127400003839284 
                    0.5       0.254509018036072    -0.00127400003839284 
                    0.5       0.256513026052104    -0.00127400003839284 
                    0.5       0.258517034068136    -0.00127400003839284 
                    0.5       0.260521042084168    -0.00127347898611682 
                    0.5         0.2625250501002    -0.00127147497558118 
                    0.5       0.264529058116232    -0.00126947096504554 
                    0.5       0.266533066132265     -0.0012674669545099 
                    0.5       0.268537074148297    -0.00126546294397426 
                    0.5       0.270541082164329    -0.00126345893343862 
                    0.5       0.272545090180361    -0.00126145492290297 
                    0.5       0.274549098196393    -0.00125945091236733 
                    0.5       0.276553106212425    -0.00125744690183169 
                    0.5       0.278557114228457    -0.00125544289129605 
                    0.5       0.280561122244489    -0.00125287776226868 
                    0.5       0.282565130260521    -0.00124886975286225 
                    0.5       0.284569138276553    -0.00124486174345583 
                    0.5       0.286573146292585     -0.0012408537340494 
                    0.5       0.288577154308617    -0.00123684572464297 
                    0.5       0.290581162324649    -0.00123283771523655 
                    0.5       0.292585170340681    -0.00122882970583012 
                    0.5       0.294589178356713     -0.0012248216964237 
                    0.5       0.296593186372746    -0.00122081368701727 
                    0.5       0.298597194388778    -0.00121680567761084 
                    0.5        0.30060120240481    -0.00121222653055949 
                    0.5       0.302605210420842    -0.00120631469125327 
                    0.5       0.304609218436874    -0.00120040285194705 
                    0.5       0.306613226452906    -0.00119449101264083 
                    0.5       0.308617234468938    -0.00118857917333461 
                    0.5        0.31062124248497    -0.00118266733402839 
                    0.5       0.312625250501002    -0.00117675549472217 
                    0.5       0.314629258517034    -0.00117084365541595 
                    0.5       0.316633266533066    -0.00116493181610973 
                    0.5       0.318637274549098    -0.00115901997680351 
                    0.5        0.32064128256513    -0.00115249892197077 
                    0.5       0.322645290581162    -0.00114468330537796 
                    0.5       0.324649298597194    -0.00113686768878516 
                    0.5       0.326653306613226    -0.00112905207219236 
                    0.5       0.328657314629259    -0.00112123645559955 
                    0.5       0.330661322645291    -0.00111342083900675 
                    0.5       0.332665330661323    -0.00110560522241395 
                    0.5       0.334669338677355    -0.00109778960582115 
                    0.5       0.336673346693387    -0.00108997398922834 
                    0.5       0.338677354709419    -0.00108215837263554 
                    0.5       0.340681362725451    -0.00107379766486525 
                    0.5       0.342685370741483    -0.00106437883051205 
                    0.5       0.344689378757515    -0.00105495999615885 
                    0.5       0.346693386773547    -0.00104554116180565 
                    0.5       0.348697394789579    -0.00103612232745245 
                    0.5       0.350701402805611    -0.00102670349309925 
                    0.5       0.352705410821643    -0.00101728465874605 
                    0.5       0.354709418837675    -0.00100786582439285 
                    0.5       0.356713426853707   -0.000998446990039649 
                    0.5        0.35871743486974   -0.000989028155686449 
                    0.5       0.360721442885772   -0.000979032172670372 
                    0.5       0.362725450901804   -0.000968010115797495 
                    0.5       0.364729458917836   -0.000956988058924618 
                    0.5       0.366733466933868   -0.000945966002051741 
                    0.5         0.3687374749499   -0.000934943945178864 
                    0.5       0.370741482965932   -0.000923921888305987 
                    0.5       0.372745490981964   -0.000912899831433109 
                    0.5       0.374749498997996   -0.000901877774560232 
                    0.5       0.376753507014028   -0.000890855717687355 
                    0.5        0.37875751503006   -0.000879833660814478 
                    0.5       0.380761523046092   -0.000868278541372268 
                    0.5       0.382765531062124   -0.000855853697048035 
                    0.5       0.384769539078156   -0.000843428852723802 
                    0.5       0.386773547094188   -0.000831004008399568 
                    0.5        0.38877755511022   -0.000818579164075335 
                    0.5       0.390781563126253   -0.000806154319751102 
                    0.5       0.392785571142285   -0.000793729475426868 
                    0.5       0.394789579158317   -0.000781304631102635 
                    0.5       0.396793587174349   -0.000768879786778402 
                    0.5       0.398797595190381   -0.000756454942454168 
                    0.5       0.400801603206413   -0.000743589213127317 
                    0.5       0.402805611222445    -0.00073006214810078 
                    0.5       0.404809619238477   -0.000716535083074242 
                    0.5       0.406813627254509   -0.000703008018047704 
                    0.5       0.408817635270541   -0.000689480953021167 
                    0.5       0.410821643286573   -0.000675953887994629 
                    0.5       0.412825651302605   -0.000662426822968092 
                    0.5       0.414829659318637   -0.000648899757941554 
                    0.5       0.416833667334669   -0.000635372692915017 
                    0.5       0.418837675350701   -0.000621845627888479 
                    0.5       0.420841683366733   -0.000607897721334133 
                    0.5       0.422845691382766   -0.000593368668280448 
                    0.5       0.424849699398798   -0.000578839615226763 
                    0.5        0.42685370741483   -0.000564310562173078 
                    0.5       0.428857715430862   -0.000549781509119393 
                    0.5       0.430861723446894   -0.000535252456065708 
                    0.5       0.432865731462926   -0.000520723403012022 
                    0.5       0.434869739478958   -0.000506194349958337 
                    0.5        0.43687374749499   -0.000491665296904652 
                    0.5       0.438877755511022   -0.000477136243850967 
                    0.5       0.440881763527054   -0.000462254485785726 
                    0.5       0.442885771543086   -0.000446923832600484 
                    0.5       0.444889779559118   -0.000431593179415242 
                    0.5        0.44689378757515       -0.00041626252623 
                    0.5       0.448897795591182   -0.000400931873044758 
                    0.5       0.450901803607214   -0.000385601219859516 
                    0.5       0.452905811623247   -0.000370270566674274 
                    0.5       0.454909819639279   -0.000354939913489032 
                    0.5       0.456913827655311    -0.00033960926030379 
                    0.5       0.458917835671343   -0.000324278607118548 
                    0.5       0.460921843687375   -0.000308717484626822 
                    0.5       0.462925851703407   -0.000292885806674751 
                    0.5       0.464929859719439    -0.00027705412872268 
                    0.5       0.466933867735471   -0.000261222450770609 
                    0.5       0.468937875751503   -0.000245390772818538 
                    0.5       0.470941883767535   -0.000229559094866467 
                    0.5       0.472945891783567   -0.000213727416914396 
                    0.5       0.474949899799599   -0.000197895738962325 
                    0.5       0.476953907815631   -0.000182064061010254 
                    0.5       0.478957915831663   -0.000166232383058182 
                    0.5       0.480961923847695   -0.000150304523024122 
                    0.5       0.482965931863727   -0.000134272467969483 
                    0.5        0.48496993987976   -0.000118240412914844 
                    0.5       0.486973947895792   -0.000102208357860204 
                    0.5       0.488977955911824   -8.61763028055652E-05 
                    0.5       0.490981963927856   -7.01442477509259E-05 
                    0.5       0.492985971943888   -5.41121926962867E-05 
                    0.5        0.49498997995992   -3.80801376416475E-05 
                    0.5       0.496993987975952   -2.20480825870083E-05 
                    0.5       0.498997995991984   -6.01602753236912E-06 
                    0.5       0.501002004008016    1.00160395354417E-05 
                    0.5       0.503006012024048    2.60481186164251E-05 
                    0.5        0.50501002004008    4.20801976974085E-05 
                    0.5       0.507014028056112    5.81122767783919E-05 
                    0.5       0.509018036072144    7.41443558593753E-05 
                    0.5       0.511022044088176    9.01764349403586E-05 
                    0.5       0.513026052104208    0.000106208514021342 
                    0.5        0.51503006012024    0.000122240593102325 
                    0.5       0.517034068136273    0.000138272672183309 
                    0.5       0.519038076152305    0.000154304751264292 
                    0.5       0.521042084168337    0.000170180491379016 
                    0.5       0.523046092184369    0.000185911924104601 
                    0.5       0.525050100200401    0.000201643356830187 
                    0.5       0.527054108216433    0.000217374789555772 
                    0.5       0.529058116232465    0.000233106222281358 
                    0.5       0.531062124248497    0.000248837655006943 
                    0.5       0.533066132264529    0.000264569087732529 
                    0.5       0.535070140280561    0.000280300520458114 
                    0.5       0.537074148296593    0.000296031953183699 
                    0.5       0.539078156312625    0.000311763385909285 
                    0.5       0.541082164328657    0.000327224306703006 
                    0.5       0.543086172344689    0.000342454781473387 
                    0.5       0.545090180360721    0.000357685256243768 
                    0.5       0.547094188376753    0.000372915731014149 
                    0.5       0.549098196392786     0.00038814620578453 
                    0.5       0.551102204408818    0.000403376680554911 
                    0.5        0.55310621242485    0.000418607155325292 
                    0.5       0.555110220440882    0.000433837630095673 
                    0.5       0.557114228456914    0.000449068104866054 
                    0.5       0.559118236472946    0.000464298579636435 
                    0.5       0.561122244488978    0.000479192380523787 
                    0.5        0.56312625250501    0.000493821650654368 
                    0.5       0.565130260521042     0.00050845092078495 
                    0.5       0.567134268537074    0.000523080190915532 
                    0.5       0.569138276553106    0.000537709461046114 
                    0.5       0.571142284569138    0.000552338731176695 
                    0.5        0.57314629258517    0.000566968001307277 
                    0.5       0.575150300601202    0.000581597271437859 
                    0.5       0.577154308617234     0.00059622654156844 
                    0.5       0.579158316633267    0.000610855811699022 
                    0.5       0.581162324649299    0.000624787656299015 
                    0.5       0.583166332665331    0.000638214485883545 
                    0.5       0.585170340681363    0.000651641315468074 
                    0.5       0.587174348697395    0.000665068145052603 
                    0.5       0.589178356713427    0.000678494974637132 
                    0.5       0.591182364729459    0.000691921804221662 
                    0.5       0.593186372745491    0.000705348633806191 
                    0.5       0.595190380761523     0.00071877546339072 
                    0.5       0.597194388777555     0.00073220229297525 
                    0.5       0.599198396793587    0.000745629122559779 
                    0.5       0.601202404809619     0.00075851490008141 
                    0.5       0.603206412825651    0.000771039958347021 
                    0.5       0.605210420841683    0.000783565016612633 
                    0.5       0.607214428857715    0.000796090074878244 
                    0.5       0.609218436873748    0.000808615133143856 
                    0.5        0.61122244488978    0.000821140191409466 
                    0.5       0.613226452905812    0.000833665249675078 
                    0.5       0.615230460921844     0.00084619030794069 
                    0.5       0.617234468937876    0.000858715366206301 
                    0.5       0.619238476953908    0.000871240424471913 
                    0.5        0.62124248496994    0.000882709379981658 
                    0.5       0.623246492985972    0.000893531040168299 
                    0.5       0.625250501002004     0.00090435270035494 
                    0.5       0.627254509018036    0.000915174360541581 
                    0.5       0.629258517034068    0.000925996020728222 
                    0.5         0.6312625250501    0.000936817680914864 
                    0.5       0.633266533066132    0.000947639341101505 
                    0.5       0.635270541082164    0.000958461001288146 
                    0.5       0.637274549098196    0.000969282661474787 
                    0.5       0.639278557114228    0.000980104321661428 
                    0.5        0.64128256513026    0.000990156405513014 
                    0.5       0.643286573146293    0.000999775616087674 
                    0.5       0.645290581162325     0.00100939482666234 
                    0.5       0.647294589178357       0.001019014037237 
                    0.5       0.649298597194389     0.00102863324781166 
                    0.5       0.651302605210421     0.00103825245838632 
                    0.5       0.653306613226453     0.00104787166896098 
                    0.5       0.655310621242485     0.00105749087953564 
                    0.5       0.657314629258517      0.0010671100901103 
                    0.5       0.659318637274549     0.00107672930068496 
                    0.5       0.661322645290581     0.00108502591518016 
                    0.5       0.663326653306613     0.00109264115256535 
                    0.5       0.665330661322645     0.00110025638995054 
                    0.5       0.667334669338677     0.00110787162733573 
                    0.5       0.669338677354709     0.00111548686472092 
                    0.5       0.671342685370741     0.00112310210210611 
                    0.5       0.673346693386774      0.0011307173394913 
                    0.5       0.675350701402806     0.00113833257687649 
                    0.5       0.677354709418838     0.00114594781426168 
                    0.5        0.67935871743487     0.00115356305164687 
                    0.5       0.681362725450902     0.00115995184791929 
                    0.5       0.683366733466934     0.00116576348596617 
                    0.5       0.685370741482966     0.00117157512401306 
                    0.5       0.687374749498998     0.00117738676205994 
                    0.5        0.68937875751503     0.00118319840010682 
                    0.5       0.691382765531062     0.00118901003815371 
                    0.5       0.693386773547094     0.00119482167620059 
                    0.5       0.695390781563126     0.00120063331424748 
                    0.5       0.697394789579158     0.00120644495229436 
                    0.5        0.69939879759519     0.00121225659034124 
                    0.5       0.701402805611222     0.00121694595596724 
                    0.5       0.703406813627255      0.0012211543613227 
                    0.5       0.705410821643287     0.00122536276667817 
                    0.5       0.707414829659319     0.00122957117203364 
                    0.5       0.709418837675351      0.0012337795773891 
                    0.5       0.711422845691383     0.00123798798274457 
                    0.5       0.713426853707415     0.00124219638810003 
                    0.5       0.715430861723447      0.0012464047934555 
                    0.5       0.717434869739479     0.00125061319881097 
                    0.5       0.719438877755511     0.00125482160416643 
                    0.5       0.721442885771543     0.00125715430496791 
                    0.5       0.723446893787575     0.00125875751345242 
                    0.5       0.725450901803607     0.00126036072193693 
                    0.5       0.727454909819639     0.00126196393042144 
                    0.5       0.729458917835671     0.00126356713890594 
                    0.5       0.731462925851703     0.00126517034739045 
                    0.5       0.733466933867735     0.00126677355587496 
                    0.5       0.735470941883767     0.00126837676435946 
                    0.5         0.7374749498998     0.00126997997284397 
                    0.5       0.739478957915832     0.00127158318132848 
                    0.5       0.741482965931864     0.00127237075680724 
                    0.5       0.743486973947896     0.00127287175143905 
                    0.5       0.745490981963928     0.00127337274607086 
                    0.5        0.74749498997996     0.00127387374070267 
                    0.5       0.749498997995992     0.00127437473533448 
                    0.5       0.751503006012024     0.00127487572996628 
                    0.5       0.753507014028056     0.00127537672459809 
                    0.5       0.755511022044088      0.0012758777192299 
                    0.5        0.75751503006012     0.00127637871386171 
                    0.5       0.759519038076152     0.00127687970849352 
                    0.5       0.761523046092184      0.0012750961267033 
                    0.5       0.763527054108216     0.00127259111854964 
                    0.5       0.765531062124248     0.00127008611039598 
                    0.5       0.767535070140281     0.00126758110224232 
                    0.5       0.769539078156313     0.00126507609408866 
                    0.5       0.771543086172345       0.001262571085935 
                    0.5       0.773547094188377     0.00126006607778134 
                    0.5       0.775551102204409     0.00125756106962768 
                    0.5       0.777555110220441     0.00125505606147401 
                    0.5       0.779559118236473     0.00125255105332035 
                    0.5       0.781563126252505     0.00124918631101124 
                    0.5       0.783567134268537     0.00124557909975522 
                    0.5       0.785571142284569      0.0012419718884992 
                    0.5       0.787575150300601     0.00123836467724318 
                    0.5       0.789579158316633     0.00123475746598716 
                    0.5       0.791583166332665     0.00123115025473114 
                    0.5       0.793587174348697     0.00122754304347511 
                    0.5       0.795591182364729     0.00122393583221909 
                    0.5       0.797595190380762     0.00122032862096307 
                    0.5       0.799599198396794     0.00121672140970705 
                    0.5       0.801603206412826     0.00121094988673804 
                    0.5       0.803607214428858     0.00120463726572422 
                    0.5        0.80561122244489      0.0011983246447104 
                    0.5       0.807615230460922     0.00119201202369658 