VARIABLES = "X"
 "Y"
 "TA"
ZONE
DT=(DOUBLE,DOUBLE,DOUBLE)
                      1                       0                       0 
                      1     0.00400801603206413     0.00109242486496488 
                      1     0.00801603206412826     0.00218484972992975 
                      1      0.0120240480961924     0.00327727459489463 
                      1      0.0160320641282565     0.00436969945985951 
                      1      0.0200400801603206     0.00546212432482438 
                      1      0.0240480961923848     0.00655454918978926 
                      1      0.0280561122244489     0.00764697405475414 
                      1       0.032064128256513     0.00873939891971901 
                      1      0.0360721442885772     0.00983182378468389 
                      1      0.0400801603206413      0.0109242486496488 
                      1      0.0440881763527054      0.0120166735146136 
                      1      0.0480961923847695      0.0131090983795785 
                      1      0.0521042084168337      0.0142050162068314 
                      1      0.0561122244488978       0.015304094335653 
                      1      0.0601202404809619      0.0164031724644747 
                      1       0.064128256513026      0.0175022505932963 
                      1      0.0681362725450902      0.0186013287221179 
                      1      0.0721442885771543      0.0197004068509395 
                      1      0.0761523046092184      0.0207994849797612 
                      1      0.0801603206412826      0.0218985631085828 
                      1      0.0841683366733467      0.0229976412374044 
                      1      0.0881763527054108       0.024096719366226 
                      1      0.0921843687374749      0.0251957974950477 
                      1      0.0961923847695391      0.0262948756238693 
                      1       0.100200400801603      0.0273946350983183 
                      1       0.104208416833667      0.0285073402410147 
                      1       0.108216432865731       0.029620045383711 
                      1       0.112224448897796      0.0307327505264073 
                      1        0.11623246492986      0.0318454556691036 
                      1       0.120240480961924         0.0329581608118 
                      1       0.124248496993988      0.0340708659544963 
                      1       0.128256513026052      0.0351835710971926 
                      1       0.132264529058116      0.0362962762398889 
                      1        0.13627254509018      0.0374089813825853 
                      1       0.140280561122244      0.0385216865252816 
                      1       0.144288577154309      0.0396343916679779 
                      1       0.148296593186373      0.0407470968106742 
                      1       0.152304609218437      0.0418714634843422 
                      1       0.156312625250501      0.0430044496029207 
                      1       0.160320641282565      0.0441374357214992 
                      1       0.164328657314629      0.0452704218400777 
                      1       0.168336673346693      0.0464034079586562 
                      1       0.172344689378758      0.0475363940772347 
                      1       0.176352705410822      0.0486693801958132 
                      1       0.180360721442886      0.0498023663143917 
                      1        0.18436873747495      0.0509353524329701 
                      1       0.188376753507014      0.0520683385515486 
                      1       0.192384769539078      0.0532013246701271 
                      1       0.196392785571142      0.0543343107887056 
                      1       0.200400801603206      0.0554700383722399 
                      1       0.204408817635271       0.056630439344224 
                      1       0.208416833667335      0.0577908403162081 
                      1       0.212424849699399      0.0589512412881922 
                      1       0.216432865731463      0.0601116422601763 
                      1       0.220440881763527      0.0612720432321604 
                      1       0.224448897795591      0.0624324442041445 
                      1       0.228456913827655      0.0635928451761286 
                      1       0.232464929859719      0.0647532461481127 
                      1       0.236472945891784      0.0659136471200968 
                      1       0.240480961923848       0.067074048092081 
                      1       0.244488977955912      0.0682344490640651 
                      1       0.248496993987976      0.0693948500360492 
                      1        0.25250501002004      0.0705767936403623 
                      1       0.256513026052104      0.0717716628240729 
                      1       0.260521042084168      0.0729665320077835 
                      1       0.264529058116232       0.074161401191494 
                      1       0.268537074148297      0.0753562703752046 
                      1       0.272545090180361      0.0765511395589152 
                      1       0.276553106212425      0.0777460087426257 
                      1       0.280561122244489      0.0789408779263363 
                      1       0.284569138276553      0.0801357471100469 
                      1       0.288577154308617      0.0813306162937575 
                      1       0.292585170340681       0.082525485477468 
                      1       0.296593186372746      0.0837203546611786 
                      1        0.30060120240481      0.0849215125075012 
                      1       0.304609218436874       0.086158306939939 
                      1       0.308617234468938      0.0873951013723767 
                      1       0.312625250501002      0.0886318958048146 
                      1       0.316633266533066      0.0898686902372523 
                      1        0.32064128256513      0.0911054846696901 
                      1       0.324649298597194      0.0923422791021279 
                      1       0.328657314629259      0.0935790735345657 
                      1       0.332665330661323      0.0948158679670035 
                      1       0.336673346693387      0.0960526623994413 
                      1       0.340681362725451      0.0972894568318791 
                      1       0.344689378757515      0.0985262512643169 
                      1       0.348697394789579      0.0997630456967547 
                      1       0.352705410821643       0.101033223927252 
                      1       0.356713426853707       0.102319475729333 
                      1       0.360721442885772       0.103605727531415 
                      1       0.364729458917836       0.104891979333496 
                      1         0.3687374749499       0.106178231135578 
                      1       0.372745490981964       0.107464482937659 
                      1       0.376753507014028       0.108750734739741 
                      1       0.380761523046092       0.110036986541822 
                      1       0.384769539078156       0.111323238343904 
                      1        0.38877755511022       0.112609490145985 
                      1       0.392785571142285       0.113895741948067 
                      1       0.396793587174349       0.115181993750148 
                      1       0.400801603206413       0.116479740720371 
                      1       0.404809619238477       0.117823468790535 
                      1       0.408817635270541       0.119167196860699 
                      1       0.412825651302605       0.120510924930863 
                      1       0.416833667334669       0.121854653001026 
                      1       0.420841683366733        0.12319838107119 
                      1       0.424849699398798       0.124542109141354 
                      1       0.428857715430862       0.125885837211518 
                      1       0.432865731462926       0.127229565281681 
                      1        0.43687374749499       0.128573293351845 
                      1       0.440881763527054       0.129917021422009 
                      1       0.444889779559118       0.131260749492173 
                      1       0.448897795591182       0.132604477562336 
                      1       0.452905811623247       0.133995802291905 
                      1       0.456913827655311       0.135405180657439 
                      1       0.460921843687375       0.136814559022973 
                      1       0.464929859719439       0.138223937388507 
                      1       0.468937875751503       0.139633315754041 
                      1       0.472945891783567       0.141042694119575 
                      1       0.476953907815631       0.142452072485109 
                      1       0.480961923847695       0.143861450850643 
                      1        0.48496993987976       0.145270829216177 
                      1       0.488977955911824       0.146680207581711 
                      1       0.492985971943888       0.148089585947245 
                      1       0.496993987975952       0.149498964312779 
                      1       0.501002004008016       0.150926959868132 
                      1        0.50501002004008       0.152410806992943 
                      1       0.509018036072144       0.153894654117754 
                      1       0.513026052104208       0.155378501242564 
                      1       0.517034068136273       0.156862348367375 
                      1       0.521042084168337       0.158346195492186 
                      1       0.525050100200401       0.159830042616997 
                      1       0.529058116232465       0.161313889741808 
                      1       0.533066132264529       0.162797736866619 
                      1       0.537074148296593       0.164281583991429 
                      1       0.541082164328657        0.16576543111624 
                      1       0.545090180360721       0.167249278241051 
                      1       0.549098196392786       0.168733125365862 
                      1        0.55310621242485       0.170281768238798 
                      1       0.557114228456914       0.171849223101412 
                      1       0.561122244488978       0.173416677964025 
                      1       0.565130260521042       0.174984132826639 
                      1       0.569138276553106       0.176551587689253 
                      1        0.57314629258517       0.178119042551867 
                      1       0.577154308617234        0.17968649741448 
                      1       0.581162324649299       0.181253952277094 
                      1       0.585170340681363       0.182821407139708 
                      1       0.589178356713427       0.184388862002321 
                      1       0.593186372745491       0.185956316864935 
                      1       0.597194388777555       0.187523771727549 
                      1       0.601202404809619         0.1891191703319 
                      1       0.605210420841683        0.19077977284728 
                      1       0.609218436873748       0.192440375362661 
                      1       0.613226452905812       0.194100977878041 
                      1       0.617234468937876       0.195761580393422 
                      1        0.62124248496994       0.197422182908802 
                      1       0.625250501002004       0.199082785424183 
                      1       0.629258517034068       0.200743387939563 
                      1       0.633266533066132       0.202403990454944 
                      1       0.637274549098196       0.204064592970324 
                      1        0.64128256513026       0.205725195485705 
                      1       0.645290581162325       0.207385798001085 
                      1       0.649298597194389       0.209046400516466 
                      1       0.653306613226453       0.210792379197354 
                      1       0.657314629258517       0.212556467227789 
                      1       0.661322645290581       0.214320555258224 
                      1       0.665330661322645       0.216084643288659 
                      1       0.669338677354709       0.217848731319094 
                      1       0.673346693386774       0.219612819349529 
                      1       0.677354709418838       0.221376907379963 
                      1       0.681362725450902       0.223140995410398 
                      1       0.685370741482966       0.224905083440833 
                      1        0.68937875751503       0.226669171471268 
                      1       0.693386773547094       0.228433259501703 
                      1       0.697394789579158       0.230197347532138 
                      1       0.701402805611222       0.232001444226759 
                      1       0.705410821643287       0.233879841754904 
                      1       0.709418837675351        0.23575823928305 
                      1       0.713426853707415       0.237636636811195 
                      1       0.717434869739479       0.239515034339341 
                      1       0.721442885771543       0.241393431867487 
                      1       0.725450901803607       0.243271829395632 
                      1       0.729458917835671       0.245150226923778 
                      1       0.733466933867735       0.247028624451923 
                      1         0.7374749498998       0.248907021980069 
                      1       0.741482965931864       0.250785419508214 
                      1       0.745490981963928        0.25266381703636 
                      1       0.749498997995992       0.254542214564505 
                      1       0.753507014028056       0.256530801375481 
                      1        0.75751503006012       0.258535129512575 
                      1       0.761523046092184       0.260539457649669 
                      1       0.765531062124248       0.262543785786763 
                      1       0.769539078156313       0.264548113923857 
                      1       0.773547094188377       0.266552442060951 
                      1       0.777555110220441       0.268556770198045 
                      1       0.781563126252505       0.270561098335139 
                      1       0.785571142284569       0.272565426472233 
                      1       0.789579158316633       0.274569754609327 
                      1       0.793587174348697       0.276574082746421 
                      1       0.797595190380762       0.278578410883515 
                      1       0.801603206412826       0.280638048839748 
                      1        0.80561122244489       0.282780652552862 
                      1       0.809619238476954       0.284923256265977 
                      1       0.813627254509018       0.287065859979091 
                      1       0.817635270541082       0.289208463692205 
                      1       0.821643286573146        0.29135106740532 
                      1        0.82565130260521       0.293493671118434 
                      1       0.829659318637275       0.295636274831548 
                      1       0.833667334669339       0.297778878544662 
                      1       0.837675350701403       0.299921482257777 
                      1       0.841683366733467       0.302064085970891 
                      1       0.845691382765531       0.304206689684005 
                      1       0.849699398797595        0.30634929339712 
                      1       0.853707414829659       0.308632114391276 
                      1       0.857715430861723       0.310926305329001 
                      1       0.861723446893788       0.313220496266726 
                      1       0.865731462925852       0.315514687204451 
                      1       0.869739478957916       0.317808878142176 
                      1        0.87374749498998       0.320103069079901 
                      1       0.877755511022044       0.322397260017626 
                      1       0.881763527054108       0.324691450955351 
                      1       0.885771543086172       0.326985641893076 
                      1       0.889779559118236       0.329279832830801 
                      1       0.893787575150301       0.331574023768526 
                      1       0.897795591182365       0.333868214706251 
                      1       0.901803607214429       0.336236894463394 
                      1       0.905811623246493       0.338696613922817 
                      1       0.909819639278557        0.34115633338224 
                      1       0.913827655310621       0.343616052841663 
                      1       0.917835671342685       0.346075772301085 
                      1        0.92184368737475       0.348535491760508 
                      1       0.925851703406814       0.350995211219931 
                      1       0.929859719438878       0.353454930679354 
                      1       0.933867735470942       0.355914650138777 
                      1       0.937875751503006         0.3583743695982 
                      1        0.94188376753507       0.360834089057622 
                      1       0.945891783567134       0.363293808517045 
                      1       0.949899799599198       0.365753527976468 
                      1       0.953907815631262        0.36838956671289 
                      1       0.957915831663327       0.371030125904757 
                      1       0.961923847695391       0.373670685096624 
                      1       0.965931863727455        0.37631124428849 
                      1       0.969939879759519       0.378951803480357 
                      1       0.973947895791583       0.381592362672224 
                      1       0.977955911823647        0.38423292186409 
                      1       0.981963927855711       0.386873481055957 
                      1       0.985971943887776       0.389514040247824 
                      1        0.98997995991984       0.392154599439691 
                      1       0.993987975951904       0.394795158631557 
                      1       0.997995991983968       0.397435717823424 
                      1        1.00200400801603       0.400174836575867 
                      1         1.0060120240481       0.403012514888886 
                      1        1.01002004008016       0.405850193201905 
                      1        1.01402805611222       0.408687871514925 
                      1        1.01803607214429       0.411525549827944 
                      1        1.02204408817635       0.414363228140963 
                      1        1.02605210420842       0.417200906453982 
                      1        1.03006012024048       0.420038584767002 
                      1        1.03406813627255       0.422876263080021 
                      1        1.03807615230461        0.42571394139304 
                      1        1.04208416833667       0.428551619706059 
                      1        1.04609218436874       0.431389298019078 
                      1         1.0501002004008       0.434232343424831 
                      1        1.05410821643287       0.437284603331347 
                      1        1.05811623246493       0.440336863237862 
                      1        1.06212424849699       0.443389123144378 
                      1        1.06613226452906       0.446441383050893 
                      1        1.07014028056112       0.449493642957409 
                      1        1.07414829659319       0.452545902863924 
                      1        1.07815631262525        0.45559816277044 
                      1        1.08216432865731       0.458650422676955 
                      1        1.08617234468938       0.461702682583471 
                      1        1.09018036072144       0.464754942489986 
                      1        1.09418837675351       0.467807202396501 
                      1        1.09819639278557       0.470859462303017 
                      1        1.10220440881764       0.474040067005186 
                      1         1.1062124248497       0.477325683609493 
                      1        1.11022044088176       0.480611300213801 
                      1        1.11422845691383       0.483896916818108 
                      1        1.11823647294589       0.487182533422416 
                      1        1.12224448897796       0.490468150026723 
                      1        1.12625250501002       0.493753766631031 
                      1        1.13026052104208       0.497039383235338 
                      1        1.13426853707415       0.500324999839646 
                      1        1.13827655310621       0.503610616443953 
                      1        1.14228456913828        0.50689623304826 
                      1        1.14629258517034       0.510181849652568 
                      1         1.1503006012024       0.513486500981263 
                      1        1.15430861723447       0.517025893782759 
                      1        1.15831663326653       0.520565286584255 
                      1         1.1623246492986       0.524104679385751 
                      1        1.16633266533066       0.527644072187247 
                      1        1.17034068136273       0.531183464988743 
                      1        1.17434869739479       0.534722857790239 
                      1        1.17835671342685       0.538262250591735 
                      1        1.18236472945892       0.541801643393231 
                      1        1.18637274549098       0.545341036194727 
                      1        1.19038076152305       0.548880428996223 
                      1        1.19438877755511       0.552419821797719 
                      1        1.19839679358717       0.555959214599215 
                      1        1.20240480961924       0.559663866387577 
                      1         1.2064128256513       0.563478696295348 
                      1        1.21042084168337       0.567293526203119 
                      1        1.21442885771543        0.57110835611089 
                      1         1.2184368737475       0.574923186018661 
                      1        1.22244488977956       0.578738015926432 
                      1        1.22645290581162       0.582552845834203 
                      1        1.23046092184369       0.586367675741974 
                      1        1.23446893787575       0.590182505649745 
                      1        1.23847695390782       0.593997335557516 
                      1        1.24248496993988       0.597812165465287 
                      1        1.24649298597194       0.601626995373059 
                      1        1.25050100200401       0.605479210806954 
                      1        1.25450901803607       0.609593124923722 
                      1        1.25851703406814        0.61370703904049 
                      1         1.2625250501002       0.617820953157258 
                      1        1.26653306613226       0.621934867274026 
                      1        1.27054108216433       0.626048781390794 
                      1        1.27454909819639       0.630162695507562 
                      1        1.27855711422846        0.63427660962433 
                      1        1.28256513026052       0.638390523741098 
                      1        1.28657314629259       0.642504437857866 
                      1        1.29058116232465       0.646618351974634 
                      1        1.29458917835671       0.650732266091402 
                      1        1.29859719438878        0.65484618020817 
                      1        1.30260521042084        0.65917095601773 
                      1        1.30661322645291       0.663609266801293 
                      1        1.31062124248497       0.668047577584856 
                      1        1.31462925851703       0.672485888368418 
                      1         1.3186372745491       0.676924199151981 
                      1        1.32264529058116       0.681362509935544 
                      1        1.32665330661323       0.685800820719107 
                      1        1.33066132264529        0.69023913150267 
                      1        1.33466933867735       0.694677442286232 
                      1        1.33867735470942       0.699115753069795 
                      1        1.34268537074148       0.703554063853358 
                      1        1.34669338677355       0.707992374636921 
                      1        1.35070140280561       0.712492254208305 
                      1        1.35470941883768       0.717282398595976 
                      1        1.35871743486974       0.722072542983648 
                      1         1.3627254509018       0.726862687371319 
                      1        1.36673346693387       0.731652831758991 
                      1        1.37074148296593       0.736442976146662 
                      1          1.374749498998       0.741233120534334 
                      1        1.37875751503006       0.746023264922005 
                      1        1.38276553106212       0.750813409309677 
                      1        1.38677354709419       0.755603553697348 
                      1        1.39078156312625        0.76039369808502 
                      1        1.39478957915832       0.765183842472691 
                      1        1.39879759519038       0.769973986860363 
                      1        1.40280561122244       0.775031050267596 
                      1        1.40681362725451       0.780202504300017 
                      1        1.41082164328657       0.785373958332439 
                      1        1.41482965931864       0.790545412364861 
                      1         1.4188376753507       0.795716866397282 
                      1        1.42284569138277       0.800888320429703 
                      1        1.42685370741483       0.806059774462125 
                      1        1.43086172344689       0.811231228494546 
                      1        1.43486973947896       0.816402682526967 
                      1        1.43887775551102       0.821574136559389 
                      1        1.44288577154309        0.82674559059181 
                      1        1.44689378757515       0.831917044624231 
                      1        1.45090180360721       0.837181491315067 
                      1        1.45490981963928       0.842766267906373 
                      1        1.45891783567134       0.848351044497679 
                      1        1.46292585170341       0.853935821088984 
                      1        1.46693386773547        0.85952059768029 
                      1        1.47094188376753       0.865105374271596 
                      1         1.4749498997996       0.870690150862902 
                      1        1.47895791583166       0.876274927454208 
                      1        1.48296593186373       0.881859704045514 
                      1        1.48697394789579       0.887444480636819 
                      1        1.49098196392786       0.893029257228125 
                      1        1.49498997995992       0.898614033819431 
                      1        1.49899799599198       0.904198810410737 
                      1        1.50300601202405       0.910119356172885 
                      1        1.50701402805611       0.916151824991982 
                      1        1.51102204408818       0.922184293811078 
                      1        1.51503006012024       0.928216762630174 
                      1         1.5190380761523       0.934249231449271 
                      1        1.52304609218437       0.940281700268367 
                      1        1.52705410821643       0.946314169087464 
                      1         1.5310621242485        0.95234663790656 
                      1        1.53507014028056       0.958379106725656 
                      1        1.53907815631263       0.964411575544753 
                      1        1.54308617234469       0.970444044363849 
                      1        1.54709418837675       0.976476513182946 
                      1        1.55110220440882        0.98264235146704 
                      1        1.55511022044088       0.989159779178499 
                      1        1.55911823647295       0.995677206889957 
                      1        1.56312625250501        1.00219463460142 
                      1        1.56713426853707        1.00871206231287 
                      1        1.57114228456914        1.01522949002433 
                      1         1.5751503006012        1.02174691773579 
                      1        1.57915831663327        1.02826434544725 
                      1        1.58316633266533        1.03478177315871 
                      1        1.58717434869739        1.04129920087017 
                      1        1.59118236472946        1.04781662858163 
                      1        1.59519038076152        1.05433405629309 
                      1        1.59919839679359        1.06085148400455 
                      1        1.60320641282565        1.06778908853986 
                      1        1.60721442885772        1.07483174118655 
                      1        1.61122244488978        1.08187439383323 
                      1        1.61523046092184        1.08891704647992 