VARIABLES="U","Y"
ZONE F=POINT
I=128
0.00000000	0.00000000
-0.01278425	0.00787402
-0.02508909	0.01574803
-0.03698466	0.02362205
-0.04853625	0.03149606
-0.05980529	0.03937008
-0.07084988	0.04724409
-0.08172495	0.05511811
-0.09248191	0.06299213
-0.10316809	0.07086614
-0.11382589	0.07874016
-0.12449173	0.08661417
-0.13519501	0.09448819
-0.14595700	0.10236220
-0.15678987	0.11023622
-0.16769586	0.11811024
-0.17866670	0.12598425
-0.18968325	0.13385827
-0.20071551	0.14173228
-0.21172285	0.14960630
-0.22265464	0.15748031
-0.23345107	0.16535433
-0.24404435	0.17322835
-0.25436006	0.18110236
-0.26431876	0.18897638
-0.27383771	0.19685039
-0.28283279	0.20472441
-0.29122044	0.21259843
-0.29891964	0.22047244
-0.30585391	0.22834646
-0.31195320	0.23622047
-0.31715565	0.24409449
-0.32140920	0.25196850
-0.32467288	0.25984252
-0.32691786	0.26771654
-0.32812816	0.27559055
-0.32830093	0.28346457
-0.32744641	0.29133858
-0.32558748	0.29921260
-0.32275881	0.30708661
-0.31900577	0.31496063
-0.31438300	0.32283465
-0.30895283	0.33070866
-0.30278347	0.33858268
-0.29594725	0.34645669
-0.28851880	0.35433071
-0.28057331	0.36220472
-0.27218493	0.37007874
-0.26342533	0.37795276
-0.25436249	0.38582677
-0.24505972	0.39370079
-0.23557485	0.40157480
-0.22595975	0.40944882
-0.21626001	0.41732283
-0.20651483	0.42519685
-0.19675708	0.43307087
-0.18701357	0.44094488
-0.17730534	0.44881890
-0.16764813	0.45669291
-0.15805288	0.46456693
-0.14852623	0.47244094
-0.13907112	0.48031496
-0.12968735	0.48818898
-0.12037207	0.49606299
-0.11112033	0.50393701
-0.10192555	0.51181102
-0.09277992	0.51968504
-0.08367483	0.52755906
-0.07460118	0.53543307
-0.06554969	0.54330709
-0.05651110	0.55118110
-0.04747647	0.55905512
-0.03843727	0.56692913
-0.02938556	0.57480315
-0.02031408	0.58267717
-0.01121637	0.59055118
-0.00208681	0.59842520
0.00707930	0.60629921
0.01628573	0.61417323
0.02553526	0.62204724
0.03482968	0.62992126
0.04416975	0.63779528
0.05355517	0.64566929
0.06298463	0.65354331
0.07245572	0.66141732
0.08196499	0.66929134
0.09150790	0.67716535
0.10107881	0.68503937
0.11067104	0.69291339
0.12027682	0.70078740
0.12988732	0.70866142
0.13949267	0.71653543
0.14908201	0.72440945
0.15864351	0.73228346
0.16816445	0.74015748
0.17763130	0.74803150
0.18702987	0.75590551
0.19634544	0.76377953
0.20556307	0.77165354
0.21466792	0.77952756
0.22364579	0.78740157
0.23248391	0.79527559
0.24117207	0.80314961
0.24970426	0.81102362
0.25808107	0.81889764
0.26631304	0.82677165
0.27442540	0.83464567
0.28246451	0.84251969
0.29050632	0.85039370
0.29866740	0.85826772
0.30711846	0.86614173
0.31610039	0.87401575
0.32594209	0.88188976
0.33707858	0.88976378
0.35006715	0.89763780
0.36559769	0.90551181
0.38449254	0.91338583
0.40768981	0.92125984
0.43620349	0.92913386
0.47105433	0.93700787
0.51316690	0.94488189
0.56323244	0.95275591
0.62154376	0.96062992
0.68781798	0.96850394
0.76103621	0.97637795
0.83934487	0.98425197
0.92008105	0.99212598
1.00000000	1.00000000
