VARIABLES = "X","DF_anl"
ZONE F =POINT
J=91
0.000000	0.283662
0.111111	0.281913
0.222222	0.276687
0.333333	0.268049
0.444444	0.256104
0.555556	0.241002
0.666667	0.222926
0.777778	0.202102
0.888889	0.178785
1.000000	0.153263
1.111111	0.125851
1.222222	0.096887
1.333333	0.066728
1.444444	0.035746
1.555556	0.004323
1.666667	-0.027153
1.777778	-0.058294
1.888889	-0.088717
2.000000	-0.118045
2.111111	-0.145918
2.222222	-0.171990
2.333333	-0.195942
2.444444	-0.217477
2.555556	-0.236330
2.666667	-0.252268
2.777778	-0.265095
2.888889	-0.274653
3.000000	-0.280823
3.111111	-0.283530
3.222222	-0.282741
3.333333	-0.278464
3.444444	-0.270753
3.555556	-0.259702
3.666667	-0.245449
3.777778	-0.228169
3.888889	-0.208074
4.000000	-0.185414
4.111111	-0.160467
4.222222	-0.133541
4.333333	-0.104967
4.444444	-0.075100
4.555556	-0.044306
4.666667	-0.012965
4.777778	0.018535
4.888889	0.049807
5.000000	0.080464
5.111111	0.110129
5.222222	0.138436
5.333333	0.165036
5.444444	0.189600
5.555556	0.211826
5.666667	0.231439
5.777778	0.248198
5.888889	0.261896
6.000000	0.272364
6.111111	0.279473
6.222222	0.283135
6.333333	0.283306
6.444444	0.279982
6.555556	0.273205
6.666667	0.263059
6.777778	0.249669
6.888889	0.233199
7.000000	0.213854
7.111111	0.191870
7.222222	0.167521
7.333333	0.141106
7.444444	0.112950
7.555556	0.083401
7.666667	0.052824
7.777778	0.021595
7.888889	-0.009900
8.000000	-0.041273
8.111111	-0.072137
8.222222	-0.102111
8.333333	-0.130826
8.444444	-0.157928
8.555556	-0.183081
8.666667	-0.205977
8.777778	-0.226333
8.888889	-0.243897
9.000000	-0.258453
9.111111	-0.269822
9.222222	-0.277863
9.333333	-0.282477
9.444444	-0.283607
9.555556	-0.281240
9.666667	-0.275404
9.777778	-0.266172
9.888889	-0.253656
10.000000	-0.238013
