VARIABLES = "X","DF"
ZONE F =POINT
J=91
0.000000	0.283654
0.111111	0.281905
0.222222	0.276686
0.333333	0.268047
0.444444	0.256103
0.555556	0.241000
0.666667	0.222925
0.777778	0.202101
0.888889	0.178784
1.000000	0.153263
1.111111	0.125851
1.222222	0.096887
1.333333	0.066728
1.444444	0.035746
1.555556	0.004323
1.666667	-0.027153
1.777778	-0.058294
1.888889	-0.088716
2.000000	-0.118045
2.111111	-0.145917
2.222222	-0.171989
2.333333	-0.195941
2.444444	-0.217476
2.555556	-0.236329
2.666667	-0.252267
2.777778	-0.265094
2.888889	-0.274652
3.000000	-0.280822
3.111111	-0.283529
3.222222	-0.282739
3.333333	-0.278462
3.444444	-0.270751
3.555556	-0.259701
3.666667	-0.245448
3.777778	-0.228168
3.888889	-0.208073
4.000000	-0.185413
4.111111	-0.160466
4.222222	-0.133540
4.333333	-0.104967
4.444444	-0.075099
4.555556	-0.044305
4.666667	-0.012965
4.777778	0.018535
4.888889	0.049807
5.000000	0.080464
5.111111	0.110129
5.222222	0.138435
5.333333	0.165035
5.444444	0.189599
5.555556	0.211825
5.666667	0.231438
5.777778	0.248197
5.888889	0.261895
6.000000	0.272363
6.111111	0.279472
6.222222	0.283134
6.333333	0.283304
6.444444	0.279981
6.555556	0.273204
6.666667	0.263058
6.777778	0.249667
6.888889	0.233198
7.000000	0.213852
7.111111	0.191870
7.222222	0.167520
7.333333	0.141105
7.444444	0.112949
7.555556	0.083401
7.666667	0.052824
7.777778	0.021595
7.888889	-0.009900
8.000000	-0.041273
8.111111	-0.072136
8.222222	-0.102111
8.333333	-0.130825
8.444444	-0.157927
8.555556	-0.183081
8.666667	-0.205976
8.777778	-0.226332
8.888889	-0.243896
9.000000	-0.258452
9.111111	-0.269821
9.222222	-0.277861
9.333333	-0.282476
9.444444	-0.283606
9.555556	-0.281239
9.666667	-0.275403
9.777778	-0.266170
9.888889	-0.253648
10.000000	-0.238005
