VARIABLES="X","Y","U","V","P"
ZONE  F=POINT
I=128, J=128
0.00000000	0.00000000	0.00000000	0.00000000	0.03532782
0.00787402	0.00000000	0.00000000	0.00000000	0.03533177
0.01574803	0.00000000	0.00000000	0.00000000	0.03533688
0.02362205	0.00000000	0.00000000	0.00000000	0.03533390
0.03149606	0.00000000	0.00000000	0.00000000	0.03531959
0.03937008	0.00000000	0.00000000	0.00000000	0.03529321
0.04724409	0.00000000	0.00000000	0.00000000	0.03525528
0.05511811	0.00000000	0.00000000	0.00000000	0.03520682
0.06299213	0.00000000	0.00000000	0.00000000	0.03514905
0.07086614	0.00000000	0.00000000	0.00000000	0.03508317
0.07874016	0.00000000	0.00000000	0.00000000	0.03501031
0.08661417	0.00000000	0.00000000	0.00000000	0.03493147
0.09448819	0.00000000	0.00000000	0.00000000	0.03484750
0.10236220	0.00000000	0.00000000	0.00000000	0.03475913
0.11023622	0.00000000	0.00000000	0.00000000	0.03466696
0.11811024	0.00000000	0.00000000	0.00000000	0.03457148
0.12598425	0.00000000	0.00000000	0.00000000	0.03447308
0.13385827	0.00000000	0.00000000	0.00000000	0.03437208
0.14173228	0.00000000	0.00000000	0.00000000	0.03426874
0.14960630	0.00000000	0.00000000	0.00000000	0.03416326
0.15748031	0.00000000	0.00000000	0.00000000	0.03405582
0.16535433	0.00000000	0.00000000	0.00000000	0.03394659
0.17322835	0.00000000	0.00000000	0.00000000	0.03383572
0.18110236	0.00000000	0.00000000	0.00000000	0.03372337
0.18897638	0.00000000	0.00000000	0.00000000	0.03360971
0.19685039	0.00000000	0.00000000	0.00000000	0.03349494
0.20472441	0.00000000	0.00000000	0.00000000	0.03337926
0.21259843	0.00000000	0.00000000	0.00000000	0.03326294
0.22047244	0.00000000	0.00000000	0.00000000	0.03314624
0.22834646	0.00000000	0.00000000	0.00000000	0.03302949
0.23622047	0.00000000	0.00000000	0.00000000	0.03291304
0.24409449	0.00000000	0.00000000	0.00000000	0.03279729
0.25196850	0.00000000	0.00000000	0.00000000	0.03268265
0.25984252	0.00000000	0.00000000	0.00000000	0.03256961
0.26771654	0.00000000	0.00000000	0.00000000	0.03245866
0.27559055	0.00000000	0.00000000	0.00000000	0.03235034
0.28346457	0.00000000	0.00000000	0.00000000	0.03224523
0.29133858	0.00000000	0.00000000	0.00000000	0.03214392
0.29921260	0.00000000	0.00000000	0.00000000	0.03204703
0.30708661	0.00000000	0.00000000	0.00000000	0.03195521
0.31496063	0.00000000	0.00000000	0.00000000	0.03186912
0.32283465	0.00000000	0.00000000	0.00000000	0.03178943
0.33070866	0.00000000	0.00000000	0.00000000	0.03171682
0.33858268	0.00000000	0.00000000	0.00000000	0.03165197
0.34645669	0.00000000	0.00000000	0.00000000	0.03159554
0.35433071	0.00000000	0.00000000	0.00000000	0.03154819
0.36220472	0.00000000	0.00000000	0.00000000	0.03151054
0.37007874	0.00000000	0.00000000	0.00000000	0.03148319
0.37795276	0.00000000	0.00000000	0.00000000	0.03146670
0.38582677	0.00000000	0.00000000	0.00000000	0.03146157
0.39370079	0.00000000	0.00000000	0.00000000	0.03146825
0.40157480	0.00000000	0.00000000	0.00000000	0.03148711
0.40944882	0.00000000	0.00000000	0.00000000	0.03151845
0.41732283	0.00000000	0.00000000	0.00000000	0.03156247
0.42519685	0.00000000	0.00000000	0.00000000	0.03161929
0.43307087	0.00000000	0.00000000	0.00000000	0.03168892
0.44094488	0.00000000	0.00000000	0.00000000	0.03177123
0.44881890	0.00000000	0.00000000	0.00000000	0.03186600
0.45669291	0.00000000	0.00000000	0.00000000	0.03197287
0.46456693	0.00000000	0.00000000	0.00000000	0.03209134
0.47244094	0.00000000	0.00000000	0.00000000	0.03222080
0.48031496	0.00000000	0.00000000	0.00000000	0.03236046
0.48818898	0.00000000	0.00000000	0.00000000	0.03250944
0.49606299	0.00000000	0.00000000	0.00000000	0.03266668
0.50393701	0.00000000	0.00000000	0.00000000	0.03283102
0.51181102	0.00000000	0.00000000	0.00000000	0.03300116
0.51968504	0.00000000	0.00000000	0.00000000	0.03317567
0.52755906	0.00000000	0.00000000	0.00000000	0.03335304
0.53543307	0.00000000	0.00000000	0.00000000	0.03353164
0.54330709	0.00000000	0.00000000	0.00000000	0.03370977
0.55118110	0.00000000	0.00000000	0.00000000	0.03388566
0.55905512	0.00000000	0.00000000	0.00000000	0.03405751
0.56692913	0.00000000	0.00000000	0.00000000	0.03422347
0.57480315	0.00000000	0.00000000	0.00000000	0.03438170
0.58267717	0.00000000	0.00000000	0.00000000	0.03453038
0.59055118	0.00000000	0.00000000	0.00000000	0.03466774
0.59842520	0.00000000	0.00000000	0.00000000	0.03479206
0.60629921	0.00000000	0.00000000	0.00000000	0.03490171
0.61417323	0.00000000	0.00000000	0.00000000	0.03499519
0.62204724	0.00000000	0.00000000	0.00000000	0.03507113
0.62992126	0.00000000	0.00000000	0.00000000	0.03512831
0.63779528	0.00000000	0.00000000	0.00000000	0.03516569
0.64566929	0.00000000	0.00000000	0.00000000	0.03518243
0.65354331	0.00000000	0.00000000	0.00000000	0.03517789
0.66141732	0.00000000	0.00000000	0.00000000	0.03515165
0.66929134	0.00000000	0.00000000	0.00000000	0.03510352
0.67716535	0.00000000	0.00000000	0.00000000	0.03503354
0.68503937	0.00000000	0.00000000	0.00000000	0.03494198
0.69291339	0.00000000	0.00000000	0.00000000	0.03482935
0.70078740	0.00000000	0.00000000	0.00000000	0.03469636
0.70866142	0.00000000	0.00000000	0.00000000	0.03454395
0.71653543	0.00000000	0.00000000	0.00000000	0.03437327
0.72440945	0.00000000	0.00000000	0.00000000	0.03418561
0.73228346	0.00000000	0.00000000	0.00000000	0.03398248
0.74015748	0.00000000	0.00000000	0.00000000	0.03376548
0.74803150	0.00000000	0.00000000	0.00000000	0.03353635
0.75590551	0.00000000	0.00000000	0.00000000	0.03329694
0.76377953	0.00000000	0.00000000	0.00000000	0.03304912
0.77165354	0.00000000	0.00000000	0.00000000	0.03279485
0.77952756	0.00000000	0.00000000	0.00000000	0.03253609
0.78740157	0.00000000	0.00000000	0.00000000	0.03227477
0.79527559	0.00000000	0.00000000	0.00000000	0.03201284
0.80314961	0.00000000	0.00000000	0.00000000	0.03175215
0.81102362	0.00000000	0.00000000	0.00000000	0.03149451
0.81889764	0.00000000	0.00000000	0.00000000	0.03124166
0.82677165	0.00000000	0.00000000	0.00000000	0.03099521
0.83464567	0.00000000	0.00000000	0.00000000	0.03075669
0.84251969	0.00000000	0.00000000	0.00000000	0.03052752
0.85039370	0.00000000	0.00000000	0.00000000	0.03030900
0.85826772	0.00000000	0.00000000	0.00000000	0.03010233
0.86614173	0.00000000	0.00000000	0.00000000	0.02990859
0.87401575	0.00000000	0.00000000	0.00000000	0.02972876
0.88188976	0.00000000	0.00000000	0.00000000	0.02956372
0.88976378	0.00000000	0.00000000	0.00000000	0.02941426
0.89763780	0.00000000	0.00000000	0.00000000	0.02928107
0.90551181	0.00000000	0.00000000	0.00000000	0.02916477
0.91338583	0.00000000	0.00000000	0.00000000	0.02906588
0.92125984	0.00000000	0.00000000	0.00000000	0.02898478
0.92913386	0.00000000	0.00000000	0.00000000	0.02892174
0.93700787	0.00000000	0.00000000	0.00000000	0.02887683
0.94488189	0.00000000	0.00000000	0.00000000	0.02884979
0.95275591	0.00000000	0.00000000	0.00000000	0.02883996
0.96062992	0.00000000	0.00000000	0.00000000	0.02884596
0.96850394	0.00000000	0.00000000	0.00000000	0.02886537
0.97637795	0.00000000	0.00000000	0.00000000	0.02889415
0.98425197	0.00000000	0.00000000	0.00000000	0.02892585
0.99212598	0.00000000	0.00000000	0.00000000	0.02895089
1.00000000	0.00000000	0.00000000	0.00000000	0.02896034
0.00000000	0.00787402	0.00000000	0.00000000	0.03532386
0.00787402	0.00787402	0.00001292	-0.00001287	0.03532782
0.01574803	0.00787402	0.00004958	-0.00002682	0.03533241
0.02362205	0.00787402	0.00010097	-0.00003451	0.03532861
0.03149606	0.00787402	0.00015779	-0.00003631	0.03531409
0.03937008	0.00787402	0.00021250	-0.00003382	0.03528825
0.04724409	0.00787402	0.00025952	-0.00002846	0.03525150
0.05511811	0.00787402	0.00029501	-0.00002130	0.03520471
0.06299213	0.00787402	0.00031646	-0.00001309	0.03514894
0.07086614	0.00787402	0.00032236	-0.00000433	0.03508529
0.07874016	0.00787402	0.00031196	0.00000462	0.03501477
0.08661417	0.00787402	0.00028497	0.00001353	0.03493833
0.09448819	0.00787402	0.00024151	0.00002224	0.03485676
0.10236220	0.00787402	0.00018188	0.00003066	0.03477077
0.11023622	0.00787402	0.00010655	0.00003877	0.03468092
0.11811024	0.00787402	0.00001604	0.00004654	0.03458771
0.12598425	0.00787402	-0.00008912	0.00005399	0.03449152
0.13385827	0.00787402	-0.00020842	0.00006116	0.03439267
0.14173228	0.00787402	-0.00034139	0.00006807	0.03429141
0.14960630	0.00787402	-0.00048763	0.00007477	0.03418797
0.15748031	0.00787402	-0.00064680	0.00008130	0.03408252
0.16535433	0.00787402	-0.00081861	0.00008770	0.03397524
0.17322835	0.00787402	-0.00100284	0.00009400	0.03386629
0.18110236	0.00787402	-0.00119934	0.00010024	0.03375583
0.18897638	0.00787402	-0.00140796	0.00010643	0.03364404
0.19685039	0.00787402	-0.00162862	0.00011260	0.03353112
0.20472441	0.00787402	-0.00186122	0.00011875	0.03341727
0.21259843	0.00787402	-0.00210570	0.00012489	0.03330275
0.22047244	0.00787402	-0.00236196	0.00013100	0.03318783
0.22834646	0.00787402	-0.00262990	0.00013707	0.03307283
0.23622047	0.00787402	-0.00290935	0.00014308	0.03295809
0.24409449	0.00787402	-0.00320013	0.00014901	0.03284400
0.25196850	0.00787402	-0.00350199	0.00015483	0.03273098
0.25984252	0.00787402	-0.00381460	0.00016050	0.03261948
0.26771654	0.00787402	-0.00413758	0.00016597	0.03251000
0.27559055	0.00787402	-0.00447044	0.00017121	0.03240306
0.28346457	0.00787402	-0.00481260	0.00017615	0.03229921
0.29133858	0.00787402	-0.00516342	0.00018076	0.03219905
0.29921260	0.00787402	-0.00552211	0.00018497	0.03210317
0.30708661	0.00787402	-0.00588780	0.00018873	0.03201221
0.31496063	0.00787402	-0.00625950	0.00019198	0.03192681
0.32283465	0.00787402	-0.00663614	0.00019466	0.03184763
0.33070866	0.00787402	-0.00701649	0.00019671	0.03177533
0.33858268	0.00787402	-0.00739924	0.00019807	0.03171057
0.34645669	0.00787402	-0.00778297	0.00019867	0.03165401
0.35433071	0.00787402	-0.00816615	0.00019847	0.03160627
0.36220472	0.00787402	-0.00854714	0.00019740	0.03156798
0.37007874	0.00787402	-0.00892420	0.00019541	0.03153972
0.37795276	0.00787402	-0.00929553	0.00019244	0.03152204
0.38582677	0.00787402	-0.00965920	0.00018847	0.03151542
0.39370079	0.00787402	-0.01001325	0.00018343	0.03152031
0.40157480	0.00787402	-0.01035564	0.00017730	0.03153707
0.40944882	0.00787402	-0.01068427	0.00017006	0.03156600
0.41732283	0.00787402	-0.01099704	0.00016167	0.03160731
0.42519685	0.00787402	-0.01129179	0.00015213	0.03166109
0.43307087	0.00787402	-0.01156638	0.00014143	0.03172737
0.44094488	0.00787402	-0.01181869	0.00012958	0.03180604
0.44881890	0.00787402	-0.01204661	0.00011661	0.03189687
0.45669291	0.00787402	-0.01224811	0.00010253	0.03199951
0.46456693	0.00787402	-0.01242123	0.00008738	0.03211349
0.47244094	0.00787402	-0.01256408	0.00007123	0.03223819
0.48031496	0.00787402	-0.01267492	0.00005412	0.03237288
0.48818898	0.00787402	-0.01275214	0.00003615	0.03251666
0.49606299	0.00787402	-0.01279428	0.00001739	0.03266854
0.50393701	0.00787402	-0.01280006	-0.00000204	0.03282735
0.51181102	0.00787402	-0.01276843	-0.00002205	0.03299184
0.51968504	0.00787402	-0.01269854	-0.00004250	0.03316062
0.52755906	0.00787402	-0.01258977	-0.00006326	0.03333220
0.53543307	0.00787402	-0.01244179	-0.00008420	0.03350500
0.54330709	0.00787402	-0.01225451	-0.00010514	0.03367736
0.55118110	0.00787402	-0.01202813	-0.00012595	0.03384754
0.55905512	0.00787402	-0.01176316	-0.00014645	0.03401379
0.56692913	0.00787402	-0.01146040	-0.00016648	0.03417431
0.57480315	0.00787402	-0.01112095	-0.00018586	0.03432729
0.58267717	0.00787402	-0.01074621	-0.00020444	0.03447096
0.59055118	0.00787402	-0.01033790	-0.00022203	0.03460359
0.59842520	0.00787402	-0.00989801	-0.00023849	0.03472349
0.60629921	0.00787402	-0.00942883	-0.00025364	0.03482908
0.61417323	0.00787402	-0.00893292	-0.00026735	0.03491889
0.62204724	0.00787402	-0.00841308	-0.00027948	0.03499158
0.62992126	0.00787402	-0.00787234	-0.00028991	0.03504597
0.63779528	0.00787402	-0.00731395	-0.00029853	0.03508104
0.64566929	0.00787402	-0.00674130	-0.00030525	0.03509596
0.65354331	0.00787402	-0.00615796	-0.00031000	0.03509013
0.66141732	0.00787402	-0.00556757	-0.00031273	0.03506312
0.66929134	0.00787402	-0.00497389	-0.00031341	0.03501476
0.67716535	0.00787402	-0.00438067	-0.00031203	0.03494509
0.68503937	0.00787402	-0.00379166	-0.00030860	0.03485437
0.69291339	0.00787402	-0.00321060	-0.00030317	0.03474311
0.70078740	0.00787402	-0.00264110	-0.00029580	0.03461200
0.70866142	0.00787402	-0.00208668	-0.00028655	0.03446197
0.71653543	0.00787402	-0.00155069	-0.00027554	0.03429413
0.72440945	0.00787402	-0.00103628	-0.00026289	0.03410977
0.73228346	0.00787402	-0.00054639	-0.00024872	0.03391033
0.74015748	0.00787402	-0.00008370	-0.00023320	0.03369740
0.74803150	0.00787402	0.00034940	-0.00021648	0.03347268
0.75590551	0.00787402	0.00075081	-0.00019873	0.03323796
0.76377953	0.00787402	0.00111873	-0.00018014	0.03299508
0.77165354	0.00787402	0.00145170	-0.00016089	0.03274596
0.77952756	0.00787402	0.00174860	-0.00014116	0.03249249
0.78740157	0.00787402	0.00200861	-0.00012114	0.03223658
0.79527559	0.00787402	0.00223128	-0.00010100	0.03198011
0.80314961	0.00787402	0.00241645	-0.00008091	0.03172490
0.81102362	0.00787402	0.00256429	-0.00006104	0.03147272
0.81889764	0.00787402	0.00267526	-0.00004155	0.03122524
0.82677165	0.00787402	0.00275012	-0.00002258	0.03098405
0.83464567	0.00787402	0.00278987	-0.00000425	0.03075064
0.84251969	0.00787402	0.00279578	0.00001330	0.03052639
0.85039370	0.00787402	0.00276934	0.00002996	0.03031257
0.85826772	0.00787402	0.00271225	0.00004563	0.03011033
0.86614173	0.00787402	0.00262645	0.00006020	0.02992073
0.87401575	0.00787402	0.00251405	0.00007359	0.02974470
0.88188976	0.00787402	0.00237737	0.00008569	0.02958311
0.88976378	0.00787402	0.00221896	0.00009637	0.02943669
0.89763780	0.00787402	0.00204161	0.00010553	0.02930611
0.90551181	0.00787402	0.00184836	0.00011299	0.02919192
0.91338583	0.00787402	0.00164259	0.00011857	0.02909459
0.92125984	0.00787402	0.00142805	0.00012202	0.02901446
0.92913386	0.00787402	0.00120897	0.00012304	0.02895173
0.93700787	0.00787402	0.00099014	0.00012126	0.02890636
0.94488189	0.00787402	0.00077700	0.00011618	0.02887806
0.95275591	0.00787402	0.00057573	0.00010726	0.02886608
0.96062992	0.00787402	0.00039334	0.00009385	0.02886904
0.96850394	0.00787402	0.00023751	0.00007538	0.02888461
0.97637795	0.00787402	0.00011617	0.00005173	0.02890911
0.98425197	0.00787402	0.00003619	0.00002448	0.02893696
0.99212598	0.00787402	0.00000032	0.00000031	0.02896033
1.00000000	0.00787402	0.00000000	0.00000000	0.02896978
0.00000000	0.01574803	0.00000000	0.00000000	0.03531878
0.00787402	0.01574803	0.00002703	-0.00004958	0.03532325
0.01574803	0.01574803	0.00008841	-0.00008805	0.03532780
0.02362205	0.01574803	0.00016863	-0.00010822	0.03532309
0.03149606	0.01574803	0.00025411	-0.00011153	0.03530837
0.03937008	0.01574803	0.00033356	-0.00010172	0.03528346
0.04724409	0.01574803	0.00039823	-0.00008251	0.03524872
0.05511811	0.01574803	0.00044170	-0.00005694	0.03520481
0.06299213	0.01574803	0.00045955	-0.00002736	0.03515257
0.07086614	0.01574803	0.00044897	0.00000450	0.03509289
0.07874016	0.01574803	0.00040834	0.00003739	0.03502663
0.08661417	0.01574803	0.00033696	0.00007045	0.03495459
0.09448819	0.01574803	0.00023475	0.00010309	0.03487750
0.10236220	0.01574803	0.00010209	0.00013495	0.03479597
0.11023622	0.01574803	-0.00006038	0.00016584	0.03471055
0.11811024	0.01574803	-0.00025187	0.00019567	0.03462168
0.12598425	0.01574803	-0.00047153	0.00022446	0.03452973
0.13385827	0.01574803	-0.00071852	0.00025228	0.03443503
0.14173228	0.01574803	-0.00099206	0.00027922	0.03433784
0.14960630	0.01574803	-0.00129143	0.00030541	0.03423836
0.15748031	0.01574803	-0.00161603	0.00033097	0.03413680
0.16535433	0.01574803	-0.00196534	0.00035604	0.03403333
0.17322835	0.01574803	-0.00233893	0.00038073	0.03392813
0.18110236	0.01574803	-0.00273645	0.00040512	0.03382136
0.18897638	0.01574803	-0.00315762	0.00042928	0.03371320
0.19685039	0.01574803	-0.00360218	0.00045326	0.03360385
0.20472441	0.01574803	-0.00406990	0.00047709	0.03349353
0.21259843	0.01574803	-0.00456054	0.00050074	0.03338247
0.22047244	0.01574803	-0.00507383	0.00052419	0.03327094
0.22834646	0.01574803	-0.00560944	0.00054739	0.03315926
0.23622047	0.01574803	-0.00616698	0.00057024	0.03304774
0.24409449	0.01574803	-0.00674594	0.00059264	0.03293676
0.25196850	0.01574803	-0.00734573	0.00061447	0.03282672
0.25984252	0.01574803	-0.00796560	0.00063559	0.03271806
0.26771654	0.01574803	-0.00860466	0.00065583	0.03261124
0.27559055	0.01574803	-0.00926186	0.00067503	0.03250676
0.28346457	0.01574803	-0.00993598	0.00069298	0.03240515
0.29133858	0.01574803	-0.01062559	0.00070950	0.03230697
0.29921260	0.01574803	-0.01132910	0.00072438	0.03221280
0.30708661	0.01574803	-0.01204471	0.00073740	0.03212323
0.31496063	0.01574803	-0.01277041	0.00074834	0.03203888
0.32283465	0.01574803	-0.01350399	0.00075698	0.03196038
0.33070866	0.01574803	-0.01424303	0.00076310	0.03188837
0.33858268	0.01574803	-0.01498493	0.00076649	0.03182346
0.34645669	0.01574803	-0.01572687	0.00076691	0.03176629
0.35433071	0.01574803	-0.01646583	0.00076416	0.03171748
0.36220472	0.01574803	-0.01719865	0.00075805	0.03167761
0.37007874	0.01574803	-0.01792196	0.00074839	0.03164724
0.37795276	0.01574803	-0.01863226	0.00073500	0.03162691
0.38582677	0.01574803	-0.01932590	0.00071772	0.03161709
0.39370079	0.01574803	-0.01999912	0.00069644	0.03161821
0.40157480	0.01574803	-0.02064806	0.00067102	0.03163063
0.40944882	0.01574803	-0.02126880	0.00064140	0.03165463
0.41732283	0.01574803	-0.02185737	0.00060751	0.03169043
0.42519685	0.01574803	-0.02240979	0.00056934	0.03173814
0.43307087	0.01574803	-0.02292209	0.00052690	0.03179778
0.44094488	0.01574803	-0.02339037	0.00048023	0.03186925
0.44881890	0.01574803	-0.02381079	0.00042943	0.03195235
0.45669291	0.01574803	-0.02417965	0.00037462	0.03204676
0.46456693	0.01574803	-0.02449341	0.00031597	0.03215203
0.47244094	0.01574803	-0.02474873	0.00025370	0.03226759
0.48031496	0.01574803	-0.02494251	0.00018806	0.03239273
0.48818898	0.01574803	-0.02507190	0.00011935	0.03252662
0.49606299	0.01574803	-0.02513439	0.00004793	0.03266829
0.50393701	0.01574803	-0.02512781	-0.00002584	0.03281665
0.51181102	0.01574803	-0.02505037	-0.00010152	0.03297051
0.51968504	0.01574803	-0.02490070	-0.00017866	0.03312852
0.52755906	0.01574803	-0.02467787	-0.00025675	0.03328928
0.53543307	0.01574803	-0.02438143	-0.00033527	0.03345127
0.54330709	0.01574803	-0.02401143	-0.00041366	0.03361290
0.55118110	0.01574803	-0.02356842	-0.00049134	0.03377252
0.55905512	0.01574803	-0.02305349	-0.00056773	0.03392843
0.56692913	0.01574803	-0.02246828	-0.00064222	0.03407891
0.57480315	0.01574803	-0.02181494	-0.00071419	0.03422224
0.58267717	0.01574803	-0.02109621	-0.00078305	0.03435671
0.59055118	0.01574803	-0.02031532	-0.00084820	0.03448066
0.59842520	0.01574803	-0.01947604	-0.00090906	0.03459248
0.60629921	0.01574803	-0.01858264	-0.00096509	0.03469066
0.61417323	0.01574803	-0.01763987	-0.00101575	0.03477377
0.62204724	0.01574803	-0.01665290	-0.00106058	0.03484054
0.62992126	0.01574803	-0.01562731	-0.00109913	0.03488983
0.63779528	0.01574803	-0.01456905	-0.00113104	0.03492067
0.64566929	0.01574803	-0.01348435	-0.00115599	0.03493228
0.65354331	0.01574803	-0.01237970	-0.00117373	0.03492406
0.66141732	0.01574803	-0.01126180	-0.00118407	0.03489562
0.66929134	0.01574803	-0.01013743	-0.00118691	0.03484680
0.67716535	0.01574803	-0.00901349	-0.00118223	0.03477764
0.68503937	0.01574803	-0.00789682	-0.00117007	0.03468840
0.69291339	0.01574803	-0.00679421	-0.00115056	0.03457957
0.70078740	0.01574803	-0.00571231	-0.00112392	0.03445182
0.70866142	0.01574803	-0.00465756	-0.00109041	0.03430605
0.71653543	0.01574803	-0.00363610	-0.00105040	0.03414332
0.72440945	0.01574803	-0.00265377	-0.00100430	0.03396487
0.73228346	0.01574803	-0.00171600	-0.00095259	0.03377210
0.74015748	0.01574803	-0.00082777	-0.00089580	0.03356653
0.74803150	0.01574803	0.00000641	-0.00083451	0.03334979
0.75590551	0.01574803	0.00078257	-0.00076933	0.03312360
0.76377953	0.01574803	0.00149729	-0.00070089	0.03288973
0.77165354	0.01574803	0.00214773	-0.00062987	0.03264999
0.77952756	0.01574803	0.00273165	-0.00055691	0.03240623
0.78740157	0.01574803	0.00324739	-0.00048268	0.03216024
0.79527559	0.01574803	0.00369391	-0.00040784	0.03191384
0.80314961	0.01574803	0.00407075	-0.00033301	0.03166876
0.81102362	0.01574803	0.00437804	-0.00025882	0.03142668
0.81889764	0.01574803	0.00461646	-0.00018583	0.03118920
0.82677165	0.01574803	0.00478721	-0.00011461	0.03095783
0.83464567	0.01574803	0.00489201	-0.00004566	0.03073398
0.84251969	0.01574803	0.00493308	0.00002054	0.03051896
0.85039370	0.01574803	0.00491306	0.00008353	0.03031396
0.85826772	0.01574803	0.00483504	0.00014289	0.03012008
0.86614173	0.01574803	0.00470255	0.00019821	0.02993829
0.87401575	0.01574803	0.00451950	0.00024908	0.02976948
0.88188976	0.01574803	0.00429023	0.00029508	0.02961441
0.88976378	0.01574803	0.00401950	0.00033576	0.02947377
0.89763780	0.01574803	0.00371257	0.00037060	0.02934812
0.90551181	0.01574803	0.00337517	0.00039902	0.02923795
0.91338583	0.01574803	0.00301365	0.00042031	0.02914362
0.92125984	0.01574803	0.00263503	0.00043361	0.02906536
0.92913386	0.01574803	0.00224712	0.00043791	0.02900327
0.93700787	0.01574803	0.00185861	0.00043198	0.02895722
0.94488189	0.01574803	0.00147920	0.00041441	0.02892680
0.95275591	0.01574803	0.00111959	0.00038365	0.02891124
0.96062992	0.01574803	0.00079148	0.00033822	0.02890924
0.96850394	0.01574803	0.00050714	0.00027717	0.02891882
0.97637795	0.01574803	0.00027862	0.00020132	0.02893712
0.98425197	0.01574803	0.00011604	0.00011585	0.02896030
0.99212598	0.01574803	0.00002456	0.00003619	0.02898370
1.00000000	0.01574803	0.00000000	0.00000000	0.02899482
0.00000000	0.02362205	0.00000000	0.00000000	0.03532192
0.00787402	0.02362205	0.00003496	-0.00010128	0.03532716
0.01574803	0.02362205	0.00010897	-0.00016842	0.03533246
0.02362205	0.02362205	0.00020084	-0.00020021	0.03532757
0.03149606	0.02362205	0.00029399	-0.00020124	0.03531282
0.03937008	0.02362205	0.00037510	-0.00017793	0.03528850
0.04724409	0.02362205	0.00043370	-0.00013659	0.03525510
0.05511811	0.02362205	0.00046192	-0.00008263	0.03521324
0.06299213	0.02362205	0.00045413	-0.00002036	0.03516364
0.07086614	0.02362205	0.00040659	0.00004688	0.03510707
0.07874016	0.02362205	0.00031701	0.00011664	0.03504426
0.08661417	0.02362205	0.00018425	0.00018712	0.03497590
0.09448819	0.02362205	0.00000803	0.00025711	0.03490265
0.10236220	0.02362205	-0.00021137	0.00032580	0.03482504
0.11023622	0.02362205	-0.00047328	0.00039273	0.03474357
0.11811024	0.02362205	-0.00077679	0.00045769	0.03465864
0.12598425	0.02362205	-0.00112087	0.00052064	0.03457062
0.13385827	0.02362205	-0.00150450	0.00058168	0.03447979
0.14173228	0.02362205	-0.00192669	0.00064097	0.03438640
0.14960630	0.02362205	-0.00238651	0.00069874	0.03429067
0.15748031	0.02362205	-0.00288315	0.00075520	0.03419280
0.16535433	0.02362205	-0.00341590	0.00081059	0.03409295
0.17322835	0.02362205	-0.00398415	0.00086511	0.03399129
0.18110236	0.02362205	-0.00458736	0.00091893	0.03388799
0.18897638	0.02362205	-0.00522505	0.00097216	0.03378323
0.19685039	0.02362205	-0.00589679	0.00102489	0.03367721
0.20472441	0.02362205	-0.00660214	0.00107711	0.03357013
0.21259843	0.02362205	-0.00734063	0.00112881	0.03346222
0.22047244	0.02362205	-0.00811174	0.00117989	0.03335375
0.22834646	0.02362205	-0.00891485	0.00123021	0.03324501
0.23622047	0.02362205	-0.00974923	0.00127959	0.03313630
0.24409449	0.02362205	-0.01061399	0.00132777	0.03302799
0.25196850	0.02362205	-0.01150809	0.00137449	0.03292046
0.25984252	0.02362205	-0.01243026	0.00141943	0.03281411
0.26771654	0.02362205	-0.01337904	0.00146223	0.03270940
0.27559055	0.02362205	-0.01435273	0.00150252	0.03260681
0.28346457	0.02362205	-0.01534937	0.00153988	0.03250684
0.29133858	0.02362205	-0.01636674	0.00157389	0.03241001
0.29921260	0.02362205	-0.01740235	0.00160409	0.03231689
0.30708661	0.02362205	-0.01845342	0.00163004	0.03222804
0.31496063	0.02362205	-0.01951691	0.00165126	0.03214407
0.32283465	0.02362205	-0.02058946	0.00166729	0.03206556
0.33070866	0.02362205	-0.02166747	0.00167766	0.03199314
0.33858268	0.02362205	-0.02274703	0.00168190	0.03192741
0.34645669	0.02362205	-0.02382398	0.00167958	0.03186899
0.35433071	0.02362205	-0.02489391	0.00167025	0.03181846
0.36220472	0.02362205	-0.02595218	0.00165352	0.03177640
0.37007874	0.02362205	-0.02699390	0.00162901	0.03174336
0.37795276	0.02362205	-0.02801403	0.00159638	0.03171986
0.38582677	0.02362205	-0.02900734	0.00155533	0.03170638
0.39370079	0.02362205	-0.02996846	0.00150559	0.03170333
0.40157480	0.02362205	-0.03089192	0.00144699	0.03171108
0.40944882	0.02362205	-0.03177221	0.00137937	0.03172993
0.41732283	0.02362205	-0.03260374	0.00130266	0.03176007
0.42519685	0.02362205	-0.03338099	0.00121685	0.03180166
0.43307087	0.02362205	-0.03409846	0.00112200	0.03185471
0.44094488	0.02362205	-0.03475077	0.00101828	0.03191916
0.44881890	0.02362205	-0.03533270	0.00090589	0.03199482
0.45669291	0.02362205	-0.03583923	0.00078515	0.03208142
0.46456693	0.02362205	-0.03626558	0.00065647	0.03217853
0.47244094	0.02362205	-0.03660728	0.00052032	0.03228561
0.48031496	0.02362205	-0.03686024	0.00037729	0.03240200
0.48818898	0.02362205	-0.03702074	0.00022803	0.03252691
0.49606299	0.02362205	-0.03708553	0.00007331	0.03265942
0.50393701	0.02362205	-0.03705185	-0.00008606	0.03279849
0.51181102	0.02362205	-0.03691748	-0.00024916	0.03294296
0.51968504	0.02362205	-0.03668081	-0.00041500	0.03309158
0.52755906	0.02362205	-0.03634080	-0.00058253	0.03324296
0.53543307	0.02362205	-0.03589711	-0.00075064	0.03339566
0.54330709	0.02362205	-0.03535005	-0.00091816	0.03354813
0.55118110	0.02362205	-0.03470065	-0.00108389	0.03369880
0.55905512	0.02362205	-0.03395062	-0.00124660	0.03384601
0.56692913	0.02362205	-0.03310244	-0.00140503	0.03398810
0.57480315	0.02362205	-0.03215929	-0.00155793	0.03412341
0.58267717	0.02362205	-0.03112509	-0.00170407	0.03425027
0.59055118	0.02362205	-0.03000444	-0.00184220	0.03436709
0.59842520	0.02362205	-0.02880267	-0.00197116	0.03447229
0.60629921	0.02362205	-0.02752573	-0.00208981	0.03456440
0.61417323	0.02362205	-0.02618021	-0.00219710	0.03464206
0.62204724	0.02362205	-0.02477330	-0.00229204	0.03470402
0.62992126	0.02362205	-0.02331268	-0.00237376	0.03474918
0.63779528	0.02362205	-0.02180652	-0.00244150	0.03477659
0.64566929	0.02362205	-0.02026340	-0.00249460	0.03478549
0.65354331	0.02362205	-0.01869219	-0.00253256	0.03477532
0.66141732	0.02362205	-0.01710207	-0.00255500	0.03474569
0.66929134	0.02362205	-0.01550234	-0.00256172	0.03469644
0.67716535	0.02362205	-0.01390240	-0.00255265	0.03462763
0.68503937	0.02362205	-0.01231167	-0.00252788	0.03453950
0.69291339	0.02362205	-0.01073945	-0.00248768	0.03443254
0.70078740	0.02362205	-0.00919488	-0.00243245	0.03430740
0.70866142	0.02362205	-0.00768680	-0.00236276	0.03416496
0.71653543	0.02362205	-0.00622373	-0.00227933	0.03400626
0.72440945	0.02362205	-0.00481375	-0.00218299	0.03383251
0.73228346	0.02362205	-0.00346442	-0.00207472	0.03364505
0.74015748	0.02362205	-0.00218272	-0.00195561	0.03344537
0.74803150	0.02362205	-0.00097500	-0.00182682	0.03323506
0.75590551	0.02362205	0.00015309	-0.00168962	0.03301578
0.76377953	0.02362205	0.00119663	-0.00154531	0.03278924
0.77165354	0.02362205	0.00215150	-0.00139525	0.03255721
0.77952756	0.02362205	0.00301434	-0.00124082	0.03232145
0.78740157	0.02362205	0.00378262	-0.00108340	0.03208371
0.79527559	0.02362205	0.00445464	-0.00092436	0.03184573
0.80314961	0.02362205	0.00502949	-0.00076504	0.03160918
0.81102362	0.02362205	0.00550706	-0.00060675	0.03137568
0.81889764	0.02362205	0.00588805	-0.00045071	0.03114674
0.82677165	0.02362205	0.00617387	-0.00029813	0.03092382
0.83464567	0.02362205	0.00636670	-0.00015012	0.03070825
0.84251969	0.02362205	0.00646940	-0.00000775	0.03050127
0.85039370	0.02362205	0.00648548	0.00012799	0.03030402
0.85826772	0.02362205	0.00641913	0.00025613	0.03011750
0.86614173	0.02362205	0.00627512	0.00037575	0.02994265
0.87401575	0.02362205	0.00605887	0.00048591	0.02978025
0.88188976	0.02362205	0.00577641	0.00058568	0.02963102
0.88976378	0.02362205	0.00543438	0.00067403	0.02949555
0.89763780	0.02362205	0.00504011	0.00074986	0.02937435
0.90551181	0.02362205	0.00460166	0.00081190	0.02926781
0.91338583	0.02362205	0.00412788	0.00085870	0.02917623
0.92125984	0.02362205	0.00362850	0.00088855	0.02909978
0.92913386	0.02362205	0.00311421	0.00089946	0.02903847
0.93700787	0.02362205	0.00259676	0.00088918	0.02899214
0.94488189	0.02362205	0.00208903	0.00085520	0.02896042
0.95275591	0.02362205	0.00160493	0.00079498	0.02894262
0.96062992	0.02362205	0.00115927	0.00070630	0.02893771
0.96850394	0.02362205	0.00076728	0.00058824	0.02894421
0.97637795	0.02362205	0.00044379	0.00044283	0.02896020
0.98425197	0.02362205	0.00020200	0.00027855	0.02898340
0.99212598	0.02362205	0.00005197	0.00011634	0.02901152
1.00000000	0.02362205	0.00000000	0.00000000	0.02902653
0.00000000	0.03149606	0.00000000	0.00000000	0.03533678
0.00787402	0.03149606	0.00003687	-0.00015855	0.03534212
0.01574803	0.03149606	0.00011204	-0.00025393	0.03534728
0.02362205	0.03149606	0.00020069	-0.00029324	0.03534191
0.03149606	0.03149606	0.00028416	-0.00028579	0.03532681
0.03937008	0.03149606	0.00034789	-0.00024143	0.03530261
0.04724409	0.03149606	0.00038055	-0.00016933	0.03526993
0.05511811	0.03149606	0.00037355	-0.00007737	0.03522940
0.06299213	0.03149606	0.00032064	0.00002797	0.03518170
0.07086614	0.03149606	0.00021755	0.00014163	0.03512749
0.07874016	0.03149606	0.00006157	0.00025973	0.03506742
0.08661417	0.03149606	-0.00014872	0.00037943	0.03500211
0.09448819	0.03149606	-0.00041381	0.00049872	0.03493211
0.10236220	0.03149606	-0.00073353	0.00061626	0.03485791
0.11023622	0.03149606	-0.00110723	0.00073125	0.03477995