VARIABLES= "X","Y","DF_ANA"
ZONE F=POINT
 I=91, J=91
0.000000	0.000000	1.000000
0.111111	0.000000	0.993834
0.222222	0.000000	0.975410
0.333333	0.000000	0.944957
0.444444	0.000000	0.902850
0.555556	0.000000	0.849608
0.666667	0.000000	0.785887
0.777778	0.000000	0.712475
0.888889	0.000000	0.630275
1.000000	0.000000	0.540302
1.111111	0.000000	0.443666
1.222222	0.000000	0.341558
1.333333	0.000000	0.235238
1.444444	0.000000	0.126016
1.555556	0.000000	0.015240
1.666667	0.000000	-0.095724
1.777778	0.000000	-0.205507
1.888889	0.000000	-0.312755
2.000000	0.000000	-0.416147
2.111111	0.000000	-0.514406
2.222222	0.000000	-0.606321
2.333333	0.000000	-0.690758
2.444444	0.000000	-0.766676
2.555556	0.000000	-0.833139
2.666667	0.000000	-0.889327
2.777778	0.000000	-0.934546
2.888889	0.000000	-0.968240
3.000000	0.000000	-0.989992
3.111111	0.000000	-0.999535
3.222222	0.000000	-0.996751
3.333333	0.000000	-0.981674
3.444444	0.000000	-0.954490
3.555556	0.000000	-0.915534
3.666667	0.000000	-0.865287
3.777778	0.000000	-0.804368
3.888889	0.000000	-0.733529
4.000000	0.000000	-0.653644
4.111111	0.000000	-0.565697
4.222222	0.000000	-0.470773
4.333333	0.000000	-0.370043
4.444444	0.000000	-0.264750
4.555556	0.000000	-0.156191
4.666667	0.000000	-0.045706
4.777778	0.000000	0.065342
4.888889	0.000000	0.175585
5.000000	0.000000	0.283662
5.111111	0.000000	0.388241
5.222222	0.000000	0.488032
5.333333	0.000000	0.581803
5.444444	0.000000	0.668400
5.555556	0.000000	0.746753
5.666667	0.000000	0.815896
5.777778	0.000000	0.874977
5.888889	0.000000	0.923267
6.000000	0.000000	0.960170
6.111111	0.000000	0.985232
6.222222	0.000000	0.998142
6.333333	0.000000	0.998743
6.444444	0.000000	0.987026
6.555556	0.000000	0.963136
6.666667	0.000000	0.927368
6.777778	0.000000	0.880162
6.888889	0.000000	0.822102
7.000000	0.000000	0.753902
7.111111	0.000000	0.676405
7.222222	0.000000	0.590565
7.333333	0.000000	0.497443
7.444444	0.000000	0.398185
7.555556	0.000000	0.294016
7.666667	0.000000	0.186222
7.777778	0.000000	0.076130
7.888889	0.000000	-0.034900
8.000000	0.000000	-0.145500
8.111111	0.000000	-0.254305
8.222222	0.000000	-0.359975
8.333333	0.000000	-0.461204
8.444444	0.000000	-0.556746
8.555556	0.000000	-0.645421
8.666667	0.000000	-0.726136
8.777778	0.000000	-0.797896
8.888889	0.000000	-0.859815
9.000000	0.000000	-0.911130
9.111111	0.000000	-0.951209
9.222222	0.000000	-0.979556
9.333333	0.000000	-0.995822
9.444444	0.000000	-0.999807
9.555556	0.000000	-0.991461
9.666667	0.000000	-0.970887
9.777778	0.000000	-0.938340
9.888889	0.000000	-0.894220
10.000000	0.000000	-0.839072
0.000000	0.111111	0.993834
0.111111	0.111111	0.987705
0.222222	0.111111	0.969395
0.333333	0.111111	0.939130
0.444444	0.111111	0.897282
0.555556	0.111111	0.844368
0.666667	0.111111	0.781041
0.777778	0.111111	0.708081
0.888889	0.111111	0.626388
1.000000	0.111111	0.536971
1.111111	0.111111	0.440930
1.222222	0.111111	0.339452
1.333333	0.111111	0.233787
1.444444	0.111111	0.125239
1.555556	0.111111	0.015146
1.666667	0.111111	-0.095133
1.777778	0.111111	-0.204239
1.888889	0.111111	-0.310827
2.000000	0.111111	-0.413581
2.111111	0.111111	-0.511234
2.222222	0.111111	-0.602582
2.333333	0.111111	-0.686499
2.444444	0.111111	-0.761949
2.555556	0.111111	-0.828001
2.666667	0.111111	-0.883843
2.777778	0.111111	-0.928783
2.888889	0.111111	-0.962269
3.000000	0.111111	-0.983888
3.111111	0.111111	-0.993372
3.222222	0.111111	-0.990605
3.333333	0.111111	-0.975621
3.444444	0.111111	-0.948604
3.555556	0.111111	-0.909888
3.666667	0.111111	-0.859951
3.777778	0.111111	-0.799408
3.888889	0.111111	-0.729006
4.000000	0.111111	-0.649613
4.111111	0.111111	-0.562208
4.222222	0.111111	-0.467870
4.333333	0.111111	-0.367761
4.444444	0.111111	-0.263117
4.555556	0.111111	-0.155228
4.666667	0.111111	-0.045425
4.777778	0.111111	0.064939
4.888889	0.111111	0.174502
5.000000	0.111111	0.281913
5.111111	0.111111	0.385847
5.222222	0.111111	0.485022
5.333333	0.111111	0.578216
5.444444	0.111111	0.664278
5.555556	0.111111	0.742148
5.666667	0.111111	0.810865
5.777778	0.111111	0.869582
5.888889	0.111111	0.917574
6.000000	0.111111	0.954249
6.111111	0.111111	0.979156
6.222222	0.111111	0.991987
6.333333	0.111111	0.992584
6.444444	0.111111	0.980939
6.555556	0.111111	0.957197
6.666667	0.111111	0.921649
6.777778	0.111111	0.874735
6.888889	0.111111	0.817032
7.000000	0.111111	0.749253
7.111111	0.111111	0.672234
7.222222	0.111111	0.586924
7.333333	0.111111	0.494375
7.444444	0.111111	0.395729
7.555556	0.111111	0.292203
7.666667	0.111111	0.185073
7.777778	0.111111	0.075661
7.888889	0.111111	-0.034685
8.000000	0.111111	-0.144603
8.111111	0.111111	-0.252737
8.222222	0.111111	-0.357755
8.333333	0.111111	-0.458360
8.444444	0.111111	-0.553312
8.555556	0.111111	-0.641441
8.666667	0.111111	-0.721658
8.777778	0.111111	-0.792975
8.888889	0.111111	-0.854513
9.000000	0.111111	-0.905512
9.111111	0.111111	-0.945343
9.222222	0.111111	-0.973515
9.333333	0.111111	-0.989681
9.444444	0.111111	-0.993641
9.555556	0.111111	-0.985347
9.666667	0.111111	-0.964900
9.777778	0.111111	-0.932554
9.888889	0.111111	-0.888706
10.000000	0.111111	-0.833897
0.000000	0.222222	0.975410
0.111111	0.222222	0.969395
0.222222	0.222222	0.951425
0.333333	0.222222	0.921721
0.444444	0.222222	0.880649
0.555556	0.222222	0.828716
0.666667	0.222222	0.766562
0.777778	0.222222	0.694955
0.888889	0.222222	0.614777
1.000000	0.222222	0.527016
1.111111	0.222222	0.432756
1.222222	0.222222	0.333159
1.333333	0.222222	0.229453
1.444444	0.222222	0.122917
1.555556	0.222222	0.014865
1.666667	0.222222	-0.093370
1.777778	0.222222	-0.200453
1.888889	0.222222	-0.305065
2.000000	0.222222	-0.405914
2.111111	0.222222	-0.501757
2.222222	0.222222	-0.591412
2.333333	0.222222	-0.673772
2.444444	0.222222	-0.747824
2.555556	0.222222	-0.812652
2.666667	0.222222	-0.867458
2.777778	0.222222	-0.911566
2.888889	0.222222	-0.944431
3.000000	0.222222	-0.965649
3.111111	0.222222	-0.974957
3.222222	0.222222	-0.972241
3.333333	0.222222	-0.957535
3.444444	0.222222	-0.931019
3.555556	0.222222	-0.893021
3.666667	0.222222	-0.844010
3.777778	0.222222	-0.784589
3.888889	0.222222	-0.715492
4.000000	0.222222	-0.637571
4.111111	0.222222	-0.551786
4.222222	0.222222	-0.459197
4.333333	0.222222	-0.360944
4.444444	0.222222	-0.258240
4.555556	0.222222	-0.152351
4.666667	0.222222	-0.044582
4.777778	0.222222	0.063735
4.888889	0.222222	0.171267
5.000000	0.222222	0.276687
5.111111	0.222222	0.378694
5.222222	0.222222	0.476031
5.333333	0.222222	0.567497
5.444444	0.222222	0.651964
5.555556	0.222222	0.728390
5.666667	0.222222	0.795833
5.777778	0.222222	0.853462
5.888889	0.222222	0.900564
6.000000	0.222222	0.936560
6.111111	0.222222	0.961005
6.222222	0.222222	0.973598
6.333333	0.222222	0.974184
6.444444	0.222222	0.962755
6.555556	0.222222	0.939453
6.666667	0.222222	0.904564
6.777778	0.222222	0.858519
6.888889	0.222222	0.801886
7.000000	0.222222	0.735364
7.111111	0.222222	0.659772
7.222222	0.222222	0.576044
7.333333	0.222222	0.485211
7.444444	0.222222	0.388394
7.555556	0.222222	0.286786
7.666667	0.222222	0.181642
7.777778	0.222222	0.074258
7.888889	0.222222	-0.034042
8.000000	0.222222	-0.141922
8.111111	0.222222	-0.248052
8.222222	0.222222	-0.351123
8.333333	0.222222	-0.449863
8.444444	0.222222	-0.543055
8.555556	0.222222	-0.629550
8.666667	0.222222	-0.708280
8.777778	0.222222	-0.778275
8.888889	0.222222	-0.838672
9.000000	0.222222	-0.888726
9.111111	0.222222	-0.927818
9.222222	0.222222	-0.955468
9.333333	0.222222	-0.971335
9.444444	0.222222	-0.975221
9.555556	0.222222	-0.967081
9.666667	0.222222	-0.947013
9.777778	0.222222	-0.915266
9.888889	0.222222	-0.872231
10.000000	0.222222	-0.818439
0.000000	0.333333	0.944957
0.111111	0.333333	0.939130
0.222222	0.333333	0.921721
0.333333	0.333333	0.892944
0.444444	0.333333	0.853154
0.555556	0.333333	0.802843
0.666667	0.333333	0.742630
0.777778	0.333333	0.673258
0.888889	0.333333	0.595583
1.000000	0.333333	0.510562
1.111111	0.333333	0.419245
1.222222	0.333333	0.322758
1.333333	0.333333	0.222289
1.444444	0.333333	0.119080
1.555556	0.333333	0.014401
1.666667	0.333333	-0.090455
1.777778	0.333333	-0.194195
1.888889	0.333333	-0.295540
2.000000	0.333333	-0.393241
2.111111	0.333333	-0.486091
2.222222	0.333333	-0.572947
2.333333	0.333333	-0.652737
2.444444	0.333333	-0.724476
2.555556	0.333333	-0.787280
2.666667	0.333333	-0.840375
2.777778	0.333333	-0.883106
2.888889	0.333333	-0.914945
3.000000	0.333333	-0.935500
3.111111	0.333333	-0.944518
3.222222	0.333333	-0.941887
3.333333	0.333333	-0.927640
3.444444	0.333333	-0.901952
3.555556	0.333333	-0.865140
3.666667	0.333333	-0.817659
3.777778	0.333333	-0.760093
3.888889	0.333333	-0.693153
4.000000	0.333333	-0.617665
4.111111	0.333333	-0.534559
4.222222	0.333333	-0.444860
4.333333	0.333333	-0.349675
4.444444	0.333333	-0.250177
4.555556	0.333333	-0.147594
4.666667	0.333333	-0.043191
4.777778	0.333333	0.061746
4.888889	0.333333	0.165920
5.000000	0.333333	0.268049
5.111111	0.333333	0.366871
5.222222	0.333333	0.461169
5.333333	0.333333	0.549779
5.444444	0.333333	0.631609
5.555556	0.333333	0.705649
5.666667	0.333333	0.770987
5.777778	0.333333	0.826816
5.888889	0.333333	0.872448
6.000000	0.333333	0.907320
6.111111	0.333333	0.931002
6.222222	0.333333	0.943202
6.333333	0.333333	0.943769
6.444444	0.333333	0.932697
6.555556	0.333333	0.910122
6.666667	0.333333	0.876323
6.777778	0.333333	0.831715
6.888889	0.333333	0.776851
7.000000	0.333333	0.712405
7.111111	0.333333	0.639174
7.222222	0.333333	0.558059
7.333333	0.333333	0.470062
7.444444	0.333333	0.376268
7.555556	0.333333	0.277833
7.666667	0.333333	0.175971
7.777778	0.333333	0.071940
7.888889	0.333333	-0.032979
8.000000	0.333333	-0.137491
8.111111	0.333333	-0.240308
8.222222	0.333333	-0.340160
8.333333	0.333333	-0.435818
8.444444	0.333333	-0.526101
8.555556	0.333333	-0.609895
8.666667	0.333333	-0.686167
8.777778	0.333333	-0.753977
8.888889	0.333333	-0.812488
9.000000	0.333333	-0.860979
9.111111	0.333333	-0.898851
9.222222	0.333333	-0.925638
9.333333	0.333333	-0.941009
9.444444	0.333333	-0.944774
9.555556	0.333333	-0.936888
9.666667	0.333333	-0.917447
9.777778	0.333333	-0.886691
9.888889	0.333333	-0.844999
10.000000	0.333333	-0.792886
0.000000	0.444444	0.902850
0.111111	0.444444	0.897282
0.222222	0.444444	0.880649
0.333333	0.444444	0.853154
0.444444	0.444444	0.815138
0.555556	0.444444	0.767068
0.666667	0.444444	0.709538
0.777778	0.444444	0.643257
0.888889	0.444444	0.569044
1.000000	0.444444	0.487812
1.111111	0.444444	0.400564
1.222222	0.444444	0.308376
1.333333	0.444444	0.212384
1.444444	0.444444	0.113773
1.555556	0.444444	0.013760
1.666667	0.444444	-0.086424
1.777778	0.444444	-0.185542
1.888889	0.444444	-0.282371
2.000000	0.444444	-0.375718
2.111111	0.444444	-0.464431
2.222222	0.444444	-0.547417
2.333333	0.444444	-0.623651
2.444444	0.444444	-0.692193
2.555556	0.444444	-0.752199
2.666667	0.444444	-0.802928
2.777778	0.444444	-0.843755
2.888889	0.444444	-0.874175
3.000000	0.444444	-0.893814
3.111111	0.444444	-0.902430
3.222222	0.444444	-0.899916
3.333333	0.444444	-0.886304
3.444444	0.444444	-0.861761
3.555556	0.444444	-0.826590
3.666667	0.444444	-0.781224
3.777778	0.444444	-0.726224
3.888889	0.444444	-0.662267
4.000000	0.444444	-0.590142
4.111111	0.444444	-0.510739
4.222222	0.444444	-0.425037
4.333333	0.444444	-0.334093
4.444444	0.444444	-0.239029
4.555556	0.444444	-0.141017
4.666667	0.444444	-0.041266
4.777778	0.444444	0.058994
4.888889	0.444444	0.158527
5.000000	0.444444	0.256104
5.111111	0.444444	0.350523
5.222222	0.444444	0.440619
5.333333	0.444444	0.525281
5.444444	0.444444	0.603465
5.555556	0.444444	0.674206
5.666667	0.444444	0.736632
5.777778	0.444444	0.789973
5.888889	0.444444	0.833571
6.000000	0.444444	0.866889
6.111111	0.444444	0.889516
6.222222	0.444444	0.901172
6.333333	0.444444	0.901715
6.444444	0.444444	0.891136
6.555556	0.444444	0.869567
6.666667	0.444444	0.837274
6.777778	0.444444	0.794654
6.888889	0.444444	0.742234
7.000000	0.444444	0.680660
7.111111	0.444444	0.610692
7.222222	0.444444	0.533192
7.333333	0.444444	0.449116
7.444444	0.444444	0.359501
7.555556	0.444444	0.265452
7.666667	0.444444	0.168130
7.777778	0.444444	0.068734
7.888889	0.444444	-0.031510
8.000000	0.444444	-0.131365
8.111111	0.444444	-0.229600
8.222222	0.444444	-0.325003
8.333333	0.444444	-0.416398
8.444444	0.444444	-0.502658
8.555556	0.444444	-0.582718
8.666667	0.444444	-0.655592
8.777778	0.444444	-0.720380
8.888889	0.444444	-0.776284
9.000000	0.444444	-0.822614
9.111111	0.444444	-0.858798
9.222222	0.444444	-0.884391
9.333333	0.444444	-0.899077
9.444444	0.444444	-0.902675
9.555556	0.444444	-0.895140
9.666667	0.444444	-0.876565
9.777778	0.444444	-0.847180
9.888889	0.444444	-0.807346
10.000000	0.444444	-0.757555
0.000000	0.555556	0.849608
0.111111	0.555556	0.844368
0.222222	0.555556	0.828716
0.333333	0.555556	0.802843
0.444444	0.555556	0.767068
0.555556	0.555556	0.721833
0.666667	0.555556	0.667696
0.777778	0.555556	0.605324
0.888889	0.555556	0.535486
1.000000	0.555556	0.459045
1.111111	0.555556	0.376942
1.222222	0.555556	0.290190
1.333333	0.555556	0.199860
1.444444	0.555556	0.107064
1.555556	0.555556	0.012948
1.666667	0.555556	-0.081327
1.777778	0.555556	-0.174600
1.888889	0.555556	-0.265719
2.000000	0.555556	-0.353561
2.111111	0.555556	-0.437043
2.222222	0.555556	-0.515135
2.333333	0.555556	-0.586873
2.444444	0.555556	-0.651374
2.555556	0.555556	-0.707841
2.666667	0.555556	-0.755579
2.777778	0.555556	-0.793997
2.888889	0.555556	-0.822624
3.000000	0.555556	-0.841105
3.111111	0.555556	-0.849213
3.222222	0.555556	-0.846847
3.333333	0.555556	-0.834038
3.444444	0.555556	-0.810942
3.555556	0.555556	-0.777845
3.666667	0.555556	-0.735154
3.777778	0.555556	-0.683397
3.888889	0.555556	-0.623212
4.000000	0.555556	-0.555341
4.111111	0.555556	-0.480620
4.222222	0.555556	-0.399972
4.333333	0.555556	-0.314392
4.444444	0.555556	-0.224933
4.555556	0.555556	-0.132701
4.666667	0.555556	-0.038832
4.777778	0.555556	0.055515
4.888889	0.555556	0.149178
5.000000	0.555556	0.241002
5.111111	0.555556	0.329853
5.222222	0.555556	0.414635
5.333333	0.555556	0.494305
5.444444	0.555556	0.567878
5.555556	0.555556	0.634447
5.666667	0.555556	0.693192
5.777778	0.555556	0.743387
5.888889	0.555556	0.784415
6.000000	0.555556	0.815768
6.111111	0.555556	0.837060
6.222222	0.555556	0.848029
6.333333	0.555556	0.848539
6.444444	0.555556	0.838585
6.555556	0.555556	0.818288
6.666667	0.555556	0.787899
6.777778	0.555556	0.747792
6.888889	0.555556	0.698464
7.000000	0.555556	0.640521
7.111111	0.555556	0.574679
7.222222	0.555556	0.501749
7.333333	0.555556	0.422631
7.444444	0.555556	0.338301
7.555556	0.555556	0.249798
7.666667	0.555556	0.158215
7.777778	0.555556	0.064681
7.888889	0.555556	-0.029651
8.000000	0.555556	-0.123618
8.111111	0.555556	-0.216060
8.222222	0.555556	-0.305837
8.333333	0.555556	-0.391842
8.444444	0.555556	-0.473015
8.555556	0.555556	-0.548354
8.666667	0.555556	-0.616931
8.777778	0.555556	-0.677898
8.888889	0.555556	-0.730505
9.000000	0.555556	-0.774103
9.111111	0.555556	-0.808154
9.222222	0.555556	-0.832238
9.333333	0.555556	-0.846058
9.444444	0.555556	-0.849443
9.555556	0.555556	-0.842353
9.666667	0.555556	-0.824873
9.777778	0.555556	-0.797221
9.888889	0.555556	-0.759736
10.000000	0.555556	-0.712882
0.000000	0.666667	0.785887
0.111111	0.666667	0.781041
0.222222	0.666667	0.766562
0.333333	0.666667	0.742630
0.444444	0.666667	0.709538
0.555556	0.666667	0.667696
0.666667	0.666667	0.617619
0.777778	0.666667	0.559925
0.888889	0.666667	0.495325
1.000000	0.666667	0.424617
1.111111	0.666667	0.348671
1.222222	0.666667	0.268426
1.333333	0.666667	0.184870
1.444444	0.666667	0.099034
1.555556	0.666667	0.011977
1.666667	0.666667	-0.075228
1.777778	0.666667	-0.161505
1.888889	0.666667	-0.245790
2.000000	0.666667	-0.327044
2.111111	0.666667	-0.404265
2.222222	0.666667	-0.476500
2.333333	0.666667	-0.542858
2.444444	0.666667	-0.602521
2.555556	0.666667	-0.654753
2.666667	0.666667	-0.698910
2.777778	0.666667	-0.734448
2.888889	0.666667	-0.760927
3.000000	0.666667	-0.778022
3.111111	0.666667	-0.785522
3.222222	0.666667	-0.783334
3.333333	0.666667	-0.771485
3.444444	0.666667	-0.750121
3.555556	0.666667	-0.719506
3.666667	0.666667	-0.680018
3.777778	0.666667	-0.632143
3.888889	0.666667	-0.576471
4.000000	0.666667	-0.513690
4.111111	0.666667	-0.444574
4.222222	0.666667	-0.369975
4.333333	0.666667	-0.290812
4.444444	0.666667	-0.208064
4.555556	0.666667	-0.122749
4.666667	0.666667	-0.035920
4.777778	0.666667	0.051352
4.888889	0.666667	0.137990
5.000000	0.666667	0.222926
5.111111	0.666667	0.305114
5.222222	0.666667	0.383538
5.333333	0.666667	0.457232
5.444444	0.666667	0.525287
5.555556	0.666667	0.586864
5.666667	0.666667	0.641203
5.777778	0.666667	0.687633
5.888889	0.666667	0.725584
6.000000	0.666667	0.754586
6.111111	0.666667	0.774281
6.222222	0.666667	0.784427
6.333333	0.666667	0.784899
6.444444	0.666667	0.775691
6.555556	0.666667	0.756916
6.666667	0.666667	0.728806
6.777778	0.666667	0.691708
6.888889	0.666667	0.646079
7.000000	0.666667	0.592482
7.111111	0.666667	0.531578
7.222222	0.666667	0.464118
7.333333	0.666667	0.390934
7.444444	0.666667	0.312928
7.555556	0.666667	0.231064
7.666667	0.666667	0.146349
7.777778	0.666667	0.059830
7.888889	0.666667	-0.027428
8.000000	0.666667	-0.114347
8.111111	0.666667	-0.199855
8.222222	0.666667	-0.282899
8.333333	0.666667	-0.362454
8.444444	0.666667	-0.437539
8.555556	0.666667	-0.507228
8.666667	0.666667	-0.570661
8.777778	0.666667	-0.627056
8.888889	0.666667	-0.675718
9.000000	0.666667	-0.716046
9.111111	0.666667	-0.747543
9.222222	0.666667	-0.769820
9.333333	0.666667	-0.782604
9.444444	0.666667	-0.785735
9.555556	0.666667	-0.779176
9.666667	0.666667	-0.763008
9.777778	0.666667	-0.737429
9.888889	0.666667	-0.702756
10.000000	0.666667	-0.659416
0.000000	0.777778	0.712475
0.111111	0.777778	0.708081
0.222222	0.777778	0.694955
0.333333	0.777778	0.673258
0.444444	0.777778	0.643257
0.555556	0.777778	0.605324
0.666667	0.777778	0.559925
0.777778	0.777778	0.507620
0.888889	0.777778	0.449055
1.000000	0.777778	0.384952
1.111111	0.777778	0.316101
1.222222	0.777778	0.243351
1.333333	0.777778	0.167601
1.444444	0.777778	0.089783
1.555556	0.777778	0.010858
1.666667	0.777778	-0.068201
1.777778	0.777778	-0.146418
1.888889	0.777778	-0.222830
2.000000	0.777778	-0.296494
2.111111	0.777778	-0.366501
2.222222	0.777778	-0.431988
2.333333	0.777778	-0.492148
2.444444	0.777778	-0.546237
2.555556	0.777778	-0.593590
2.666667	0.777778	-0.633623
2.777778	0.777778	-0.665840
2.888889	0.777778	-0.689846
3.000000	0.777778	-0.705345
3.111111	0.777778	-0.712144
3.222222	0.777778	-0.710160
3.333333	0.777778	-0.699418
3.444444	0.777778	-0.680050
3.555556	0.777778	-0.652295
3.666667	0.777778	-0.616495
3.777778	0.777778	-0.573092
3.888889	0.777778	-0.522621
4.000000	0.777778	-0.465704
4.111111	0.777778	-0.403045
4.222222	0.777778	-0.335414
4.333333	0.777778	-0.263646
4.444444	0.777778	-0.188628
4.555556	0.777778	-0.111282
4.666667	0.777778	-0.032565
4.777778	0.777778	0.046555
4.888889	0.777778	0.125100
5.000000	0.777778	0.202102
5.111111	0.777778	0.276612
5.222222	0.777778	0.347710
5.333333	0.777778	0.414520
5.444444	0.777778	0.476218
5.555556	0.777778	0.532043
5.666667	0.777778	0.581305
5.777778	0.777778	0.623399
5.888889	0.777778	0.657804
6.000000	0.777778	0.684097
6.111111	0.777778	0.701953
6.222222	0.777778	0.711151
6.333333	0.777778	0.711579
6.444444	0.777778	0.703231
6.555556	0.777778	0.686210
6.666667	0.777778	0.660726
6.777778	0.777778	0.627093
6.888889	0.777778	0.585727
7.000000	0.777778	0.537136
7.111111	0.777778	0.481921
7.222222	0.777778	0.420763
7.333333	0.777778	0.354415
7.444444	0.777778	0.283697
7.555556	0.777778	0.209479
7.666667	0.777778	0.132678
7.777778	0.777778	0.054241
7.888889	0.777778	-0.024865
8.000000	0.777778	-0.103665
8.111111	0.777778	-0.181186
8.222222	0.777778	-0.256473
8.333333	0.777778	-0.328596
8.444444	0.777778	-0.396667
8.555556	0.777778	-0.459846
8.666667	0.777778	-0.517353
8.777778	0.777778	-0.568480
8.888889	0.777778	-0.612596
9.000000	0.777778	-0.649157
9.111111	0.777778	-0.677712
9.222222	0.777778	-0.697909
9.333333	0.777778	-0.709498
9.444444	0.777778	-0.712337
9.555556	0.777778	-0.706391
9.666667	0.777778	-0.691733
9.777778	0.777778	-0.668543
9.888889	0.777778	-0.637109
10.000000	0.777778	-0.597817
0.000000	0.888889	0.630275
0.111111	0.888889	0.626388
0.222222	0.888889	0.614777
0.333333	0.888889	0.595583
0.444444	0.888889	0.569044
0.555556	0.888889	0.535486
0.666667	0.888889	0.495325
0.777778	0.888889	0.449055
0.888889	0.888889	0.397247
1.000000	0.888889	0.340539
1.111111	0.888889	0.279632
1.222222	0.888889	0.215275
1.333333	0.888889	0.148264
1.444444	0.888889	0.079425
1.555556	0.888889	0.009606
1.666667	0.888889	-0.060332
1.777778	0.888889	-0.129526
1.888889	0.888889	-0.197122
2.000000	0.888889	-0.262287
2.111111	0.888889	-0.324217
2.222222	0.888889	-0.382149
2.333333	0.888889	-0.435368
2.444444	0.888889	-0.483217
2.555556	0.888889	-0.525107
2.666667	0.888889	-0.560520
2.777778	0.888889	-0.589021
2.888889	0.888889	-0.610257
3.000000	0.888889	-0.623968
3.111111	0.888889	-0.629982
3.222222	0.888889	-0.628227
3.333333	0.888889	-0.618725
3.444444	0.888889	-0.601591
3.555556	0.888889	-0.577038
3.666667	0.888889	-0.545369
3.777778	0.888889	-0.506973
3.888889	0.888889	-0.462325
4.000000	0.888889	-0.411975
4.111111	0.888889	-0.356545
4.222222	0.888889	-0.296716
4.333333	0.888889	-0.233229
4.444444	0.888889	-0.166865
4.555556	0.888889	-0.098443
4.666667	0.888889	-0.028808
4.777778	0.888889	0.041184
4.888889	0.888889	0.110667
5.000000	0.888889	0.178785
5.111111	0.888889	0.244699
5.222222	0.888889	0.307594
5.333333	0.888889	0.366696
5.444444	0.888889	0.421276
5.555556	0.888889	0.470660
5.666667	0.888889	0.514239
5.777778	0.888889	0.551476
5.888889	0.888889	0.581912
6.000000	0.888889	0.605171
6.111111	0.888889	0.620967
6.222222	0.888889	0.629104
6.333333	0.888889	0.629483
6.444444	0.888889	0.622098
6.555556	0.888889	0.607041
6.666667	0.888889	0.584497
6.777778	0.888889	0.554744
6.888889	0.888889	0.518150
7.000000	0.888889	0.475166
7.111111	0.888889	0.426321
7.222222	0.888889	0.372219
7.333333	0.888889	0.313526
7.444444	0.888889	0.250966
7.555556	0.888889	0.185311
7.666667	0.888889	0.117371
7.777778	0.888889	0.047983
7.888889	0.888889	-0.021997
8.000000	0.888889	-0.091705
8.111111	0.888889	-0.160282
8.222222	0.888889	-0.226883
8.333333	0.888889	-0.290685
8.444444	0.888889	-0.350903
8.555556	0.888889	-0.406793
8.666667	0.888889	-0.457665
8.777778	0.888889	-0.502894
8.888889	0.888889	-0.541920
9.000000	0.888889	-0.574263
9.111111	0.888889	-0.599523
9.222222	0.888889	-0.617389
9.333333	0.888889	-0.627642
9.444444	0.888889	-0.630153
9.555556	0.888889	-0.624893
9.666667	0.888889	-0.611926
9.777778	0.888889	-0.591412
9.888889	0.888889	-0.563604
10.000000	0.888889	-0.528846
0.000000	1.000000	0.540302
0.111111	1.000000	0.536971
0.222222	1.000000	0.527016
0.333333	1.000000	0.510562
0.444444	1.000000	0.487812
0.555556	1.000000	0.459045
0.666667	1.000000	0.424617
0.777778	1.000000	0.384952
0.888889	1.000000	0.340539
1.000000	1.000000	0.291927
1.111111	1.000000	0.239714
1.222222	1.000000	0.184545
1.333333	1.000000	0.127099
1.444444	1.000000	0.068087
1.555556	1.000000	0.008234
1.666667	1.000000	-0.051720
1.777778	1.000000	-0.111036
1.888889	1.000000	-0.168982
2.000000	1.000000	-0.224845
2.111111	1.000000	-0.277935
2.222222	1.000000	-0.327597
2.333333	1.000000	-0.373218
2.444444	1.000000	-0.414237
2.555556	1.000000	-0.450147
2.666667	1.000000	-0.480505
2.777778	1.000000	-0.504937
2.888889	1.000000	-0.523142
3.000000	1.000000	-0.534895
3.111111	1.000000	-0.540051
3.222222	1.000000	-0.538547
3.333333	1.000000	-0.530401
3.444444	1.000000	-0.515713
3.555556	1.000000	-0.494665
3.666667	1.000000	-0.467516
3.777778	1.000000	-0.434602
3.888889	1.000000	-0.396328
4.000000	1.000000	-0.353165
4.111111	1.000000	-0.305647
4.222222	1.000000	-0.254360
4.333333	1.000000	-0.199935
4.444444	1.000000	-0.143045
4.555556	1.000000	-0.084391
4.666667	1.000000	-0.024695
4.777778	1.000000	0.035305
4.888889	1.000000	0.094869
5.000000	1.000000	0.153263
5.111111	1.000000	0.209768
5.222222	1.000000	0.263685
5.333333	1.000000	0.314350
5.444444	1.000000	0.361138
5.555556	1.000000	0.403472
5.666667	1.000000	0.440831
5.777778	1.000000	0.472752
5.888889	1.000000	0.498843
6.000000	1.000000	0.518782
6.111111	1.000000	0.532323
6.222222	1.000000	0.539299
6.333333	1.000000	0.539623
6.444444	1.000000	0.533292
6.555556	1.000000	0.520385
6.666667	1.000000	0.501059
6.777778	1.000000	0.475554
6.888889	1.000000	0.444183
7.000000	1.000000	0.407335
7.111111	1.000000	0.365463
7.222222	1.000000	0.319084
7.333333	1.000000	0.268769
7.444444	1.000000	0.215140
7.555556	1.000000	0.158858
7.666667	1.000000	0.100616
7.777778	1.000000	0.041133
7.888889	1.000000	-0.018857
8.000000	1.000000	-0.078614
8.111111	1.000000	-0.137402
8.222222	1.000000	-0.194495
8.333333	1.000000	-0.249190
8.444444	1.000000	-0.300811
8.555556	1.000000	-0.348722
8.666667	1.000000	-0.392333
8.777778	1.000000	-0.431105
8.888889	1.000000	-0.464560
9.000000	1.000000	-0.492286
9.111111	1.000000	-0.513940
9.222222	1.000000	-0.529256
9.333333	1.000000	-0.538045
9.444444	1.000000	-0.540198
9.555556	1.000000	-0.535689
9.666667	1.000000	-0.524573
9.777778	1.000000	-0.506987
9.888889	1.000000	-0.483149
10.000000	1.000000	-0.453352
0.000000	1.111111	0.443666
0.111111	1.111111	0.440930
0.222222	1.111111	0.432756
0.333333	1.111111	0.419245
0.444444	1.111111	0.400564
0.555556	1.111111	0.376942
0.666667	1.111111	0.348671
0.777778	1.111111	0.316101
0.888889	1.111111	0.279632
1.000000	1.111111	0.239714
1.111111	1.111111	0.196840
1.222222	1.111111	0.151538
1.333333	1.111111	0.104367
1.444444	1.111111	0.055909
1.555556	1.111111	0.006762
1.666667	1.111111	-0.042469
1.777778	1.111111	-0.091176
1.888889	1.111111	-0.138759
2.000000	1.111111	-0.184630
2.111111	1.111111	-0.228224
2.222222	1.111111	-0.269004
2.333333	1.111111	-0.306466
2.444444	1.111111	-0.340148
2.555556	1.111111	-0.369635
2.666667	1.111111	-0.394564
2.777778	1.111111	-0.414626
2.888889	1.111111	-0.429575
3.000000	1.111111	-0.439226
3.111111	1.111111	-0.443460
3.222222	1.111111	-0.442225
3.333333	1.111111	-0.435535
3.444444	1.111111	-0.423475
3.555556	1.111111	-0.406191
3.666667	1.111111	-0.383898
3.777778	1.111111	-0.356871
3.888889	1.111111	-0.325442
4.000000	1.111111	-0.289999
4.111111	1.111111	-0.250980
4.222222	1.111111	-0.208866
4.333333	1.111111	-0.164176
4.444444	1.111111	-0.117461
4.555556	1.111111	-0.069297
4.666667	1.111111	-0.020278
4.777778	1.111111	0.028990
4.888889	1.111111	0.077901
5.000000	1.111111	0.125851
5.111111	1.111111	0.172249
5.222222	1.111111	0.216523
5.333333	1.111111	0.258126
5.444444	1.111111	0.296546
5.555556	1.111111	0.331309
5.666667	1.111111	0.361985
5.777778	1.111111	0.388198
5.888889	1.111111	0.409622
6.000000	1.111111	0.425995
6.111111	1.111111	0.437114
6.222222	1.111111	0.442842
6.333333	1.111111	0.443108
6.444444	1.111111	0.437910
6.555556	1.111111	0.427311
6.666667	1.111111	0.411442
6.777778	1.111111	0.390498
6.888889	1.111111	0.364739
7.000000	1.111111	0.334481
7.111111	1.111111	0.300098
7.222222	1.111111	0.262014
7.333333	1.111111	0.220698
7.444444	1.111111	0.176661
7.555556	1.111111	0.130445
7.666667	1.111111	0.082620
7.777778	1.111111	0.033776
7.888889	1.111111	-0.015484
8.000000	1.111111	-0.064553
8.111111	1.111111	-0.112827
8.222222	1.111111	-0.159708
8.333333	1.111111	-0.204621
8.444444	1.111111	-0.247009
8.555556	1.111111	-0.286351
8.666667	1.111111	-0.322162
8.777778	1.111111	-0.353999
8.888889	1.111111	-0.381471
9.000000	1.111111	-0.404238
9.111111	1.111111	-0.422019
9.222222	1.111111	-0.434596
9.333333	1.111111	-0.441812
9.444444	1.111111	-0.443580
9.555556	1.111111	-0.439877
9.666667	1.111111	-0.430750
9.777778	1.111111	-0.416310
9.888889	1.111111	-0.396735
10.000000	1.111111	-0.372268
0.000000	1.222222	0.341558
0.111111	1.222222	0.339452
0.222222	1.222222	0.333159
0.333333	1.222222	0.322758
0.444444	1.222222	0.308376
0.555556	1.222222	0.290190
0.666667	1.222222	0.268426
0.777778	1.222222	0.243351
0.888889	1.222222	0.215275
1.000000	1.222222	0.184545
1.111111	1.222222	0.151538
1.222222	1.222222	0.116662
1.333333	1.222222	0.080347
1.444444	1.222222	0.043042
1.555556	1.222222	0.005205
1.666667	1.222222	-0.032695
1.777778	1.222222	-0.070192
1.888889	1.222222	-0.106824
2.000000	1.222222	-0.142138
2.111111	1.222222	-0.175699
2.222222	1.222222	-0.207094
2.333333	1.222222	-0.235934
2.444444	1.222222	-0.261864
2.555556	1.222222	-0.284565
2.666667	1.222222	-0.303757
2.777778	1.222222	-0.319202
2.888889	1.222222	-0.330710
3.000000	1.222222	-0.338140
3.111111	1.222222	-0.341399
3.222222	1.222222	-0.340448
3.333333	1.222222	-0.335299
3.444444	1.222222	-0.326014
3.555556	1.222222	-0.312708
3.666667	1.222222	-0.295546
3.777778	1.222222	-0.274738
3.888889	1.222222	-0.250543
4.000000	1.222222	-0.223257
4.111111	1.222222	-0.193218
4.222222	1.222222	-0.160796
4.333333	1.222222	-0.126391
4.444444	1.222222	-0.090427
4.555556	1.222222	-0.053348
4.666667	1.222222	-0.015611
4.777778	1.222222	0.022318
4.888889	1.222222	0.059972
5.000000	1.222222	0.096887
5.111111	1.222222	0.132607
5.222222	1.222222	0.166691