VARIABLES = "X","Y","DF"
ZONE F=POINT
I=91, J=91
0.000000	0.000000	0.999970
0.111111	0.000000	0.993804
0.222222	0.000000	0.975381
0.333333	0.000000	0.944929
0.444444	0.000000	0.902823
0.555556	0.000000	0.849582
0.666667	0.000000	0.785864
0.777778	0.000000	0.712453
0.888889	0.000000	0.630256
1.000000	0.000000	0.540286
1.111111	0.000000	0.443653
1.222222	0.000000	0.341548
1.333333	0.000000	0.235231
1.444444	0.000000	0.126012
1.555556	0.000000	0.015240
1.666667	0.000000	-0.095721
1.777778	0.000000	-0.205501
1.888889	0.000000	-0.312746
2.000000	0.000000	-0.416134
2.111111	0.000000	-0.514391
2.222222	0.000000	-0.606303
2.333333	0.000000	-0.690737
2.444444	0.000000	-0.766653
2.555556	0.000000	-0.833114
2.666667	0.000000	-0.889300
2.777778	0.000000	-0.934518
2.888889	0.000000	-0.968211
3.000000	0.000000	-0.989963
3.111111	0.000000	-0.999506
3.222222	0.000000	-0.996721
3.333333	0.000000	-0.981645
3.444444	0.000000	-0.954461
3.555556	0.000000	-0.915507
3.666667	0.000000	-0.865261
3.777778	0.000000	-0.804344
3.888889	0.000000	-0.733507
4.000000	0.000000	-0.653624
4.111111	0.000000	-0.565680
4.222222	0.000000	-0.470759
4.333333	0.000000	-0.370032
4.444444	0.000000	-0.264742
4.555556	0.000000	-0.156187
4.666667	0.000000	-0.045705
4.777778	0.000000	0.065340
4.888889	0.000000	0.175580
5.000000	0.000000	0.283654
5.111111	0.000000	0.388229
5.222222	0.000000	0.488017
5.333333	0.000000	0.581786
5.444444	0.000000	0.668380
5.555556	0.000000	0.746731
5.666667	0.000000	0.815872
5.777778	0.000000	0.874951
5.888889	0.000000	0.923239
6.000000	0.000000	0.960142
6.111111	0.000000	0.985202
6.222222	0.000000	0.998112
6.333333	0.000000	0.998713
6.444444	0.000000	0.986996
6.555556	0.000000	0.963107
6.666667	0.000000	0.927340
6.777778	0.000000	0.880136
6.888889	0.000000	0.822077
7.000000	0.000000	0.753880
7.111111	0.000000	0.676385
7.222222	0.000000	0.590548
7.333333	0.000000	0.497428
7.444444	0.000000	0.398173
7.555556	0.000000	0.294007
7.666667	0.000000	0.186216
7.777778	0.000000	0.076128
7.888889	0.000000	-0.034899
8.000000	0.000000	-0.145496
8.111111	0.000000	-0.254298
8.222222	0.000000	-0.359964
8.333333	0.000000	-0.461190
8.444444	0.000000	-0.556729
8.555556	0.000000	-0.645401
8.666667	0.000000	-0.726114
8.777778	0.000000	-0.797872
8.888889	0.000000	-0.859789
9.000000	0.000000	-0.911103
9.111111	0.000000	-0.951180
9.222222	0.000000	-0.979526
9.333333	0.000000	-0.995792
9.444444	0.000000	-0.999777
9.555556	0.000000	-0.991431
9.666667	0.000000	-0.970858
9.777778	0.000000	-0.938312
9.888889	0.000000	-0.894193
10.000000	0.000000	-0.839046
0.000000	0.111111	0.993804
0.111111	0.111111	0.987676
0.222222	0.111111	0.969367
0.333333	0.111111	0.939102
0.444444	0.111111	0.897256
0.555556	0.111111	0.844344
0.666667	0.111111	0.781018
0.777778	0.111111	0.708060
0.888889	0.111111	0.626370
1.000000	0.111111	0.536955
1.111111	0.111111	0.440917
1.222222	0.111111	0.339442
1.333333	0.111111	0.233780
1.444444	0.111111	0.125235
1.555556	0.111111	0.015146
1.666667	0.111111	-0.095130
1.777778	0.111111	-0.204233
1.888889	0.111111	-0.310818
2.000000	0.111111	-0.413569
2.111111	0.111111	-0.511219
2.222222	0.111111	-0.602564
2.333333	0.111111	-0.686478
2.444444	0.111111	-0.761926
2.555556	0.111111	-0.827977
2.666667	0.111111	-0.883817
2.777778	0.111111	-0.928756
2.888889	0.111111	-0.962241
3.000000	0.111111	-0.983859
3.111111	0.111111	-0.993343
3.222222	0.111111	-0.990576
3.333333	0.111111	-0.975592
3.444444	0.111111	-0.948576
3.555556	0.111111	-0.909862
3.666667	0.111111	-0.859926
3.777778	0.111111	-0.799385
3.888889	0.111111	-0.728985
4.000000	0.111111	-0.649594
4.111111	0.111111	-0.562192
4.222222	0.111111	-0.467856
4.333333	0.111111	-0.367751
4.444444	0.111111	-0.263110
4.555556	0.111111	-0.155224
4.666667	0.111111	-0.045423
4.777778	0.111111	0.064937
4.888889	0.111111	0.174497
5.000000	0.111111	0.281905
5.111111	0.111111	0.385836
5.222222	0.111111	0.485008
5.333333	0.111111	0.578199
5.444444	0.111111	0.664259
5.555556	0.111111	0.742126
5.666667	0.111111	0.810841
5.777778	0.111111	0.869556
5.888889	0.111111	0.917547
6.000000	0.111111	0.954221
6.111111	0.111111	0.979128
6.222222	0.111111	0.991958
6.333333	0.111111	0.992555
6.444444	0.111111	0.980911
6.555556	0.111111	0.957169
6.666667	0.111111	0.921622
6.777778	0.111111	0.874709
6.888889	0.111111	0.817008
7.000000	0.111111	0.749231
7.111111	0.111111	0.672214
7.222222	0.111111	0.586907
7.333333	0.111111	0.494361
7.444444	0.111111	0.395718
7.555556	0.111111	0.292195
7.666667	0.111111	0.185068
7.777778	0.111111	0.075658
7.888889	0.111111	-0.034684
8.000000	0.111111	-0.144599
8.111111	0.111111	-0.252730
8.222222	0.111111	-0.357744
8.333333	0.111111	-0.458347
8.444444	0.111111	-0.553296
8.555556	0.111111	-0.641422
8.666667	0.111111	-0.721637
8.777778	0.111111	-0.792952
8.888889	0.111111	-0.854488
9.000000	0.111111	-0.905485
9.111111	0.111111	-0.945315
9.222222	0.111111	-0.973487
9.333333	0.111111	-0.989652
9.444444	0.111111	-0.993612
9.555556	0.111111	-0.985318
9.666667	0.111111	-0.964872
9.777778	0.111111	-0.932526
9.888889	0.111111	-0.888680
10.000000	0.111111	-0.833873
0.000000	0.222222	0.000001
0.111111	0.222222	-0.024436
0.222222	0.222222	0.951420
0.333333	0.222222	0.921716
0.444444	0.222222	0.880644
0.555556	0.222222	0.828712
0.666667	0.222222	0.766558
0.777778	0.222222	0.694951
0.888889	0.222222	0.614774
1.000000	0.222222	0.527014
1.111111	0.222222	0.432754
1.222222	0.222222	0.333157
1.333333	0.222222	0.229452
1.444444	0.222222	0.122917
1.555556	0.222222	0.014865
1.666667	0.222222	-0.093369
1.777778	0.222222	-0.200452
1.888889	0.222222	-0.305063
2.000000	0.222222	-0.405912
2.111111	0.222222	-0.501754
2.222222	0.222222	-0.591409
2.333333	0.222222	-0.673769
2.444444	0.222222	-0.747820
2.555556	0.222222	-0.812648
2.666667	0.222222	-0.867454
2.777778	0.222222	-0.911561
2.888889	0.222222	-0.944426
3.000000	0.222222	-0.965644
3.111111	0.222222	-0.974952
3.222222	0.222222	-0.972236
3.333333	0.222222	-0.957530
3.444444	0.222222	-0.931014
3.555556	0.222222	-0.893017
3.666667	0.222222	-0.844005
3.777778	0.222222	-0.784585
3.888889	0.222222	-0.715488
4.000000	0.222222	-0.637567
4.111111	0.222222	-0.551783
4.222222	0.222222	-0.459194
4.333333	0.222222	-0.360942
4.444444	0.222222	-0.258238
4.555556	0.222222	-0.152350
4.666667	0.222222	-0.044582
4.777778	0.222222	0.063735
4.888889	0.222222	0.171266
5.000000	0.222222	0.276686
5.111111	0.222222	0.378692
5.222222	0.222222	0.476029
5.333333	0.222222	0.567494
5.444444	0.222222	0.651961
5.555556	0.222222	0.728387
5.666667	0.222222	0.795829
5.777778	0.222222	0.853457
5.888889	0.222222	0.900559
6.000000	0.222222	0.936555
6.111111	0.222222	0.961000
6.222222	0.222222	0.973593
6.333333	0.222222	0.974179
6.444444	0.222222	0.962750
6.555556	0.222222	0.939448
6.666667	0.222222	0.904559
6.777778	0.222222	0.858515
6.888889	0.222222	0.801882
7.000000	0.222222	0.735360
7.111111	0.222222	0.659769
7.222222	0.222222	0.576041
7.333333	0.222222	0.485208
7.444444	0.222222	0.388392
7.555556	0.222222	0.286785
7.666667	0.222222	0.181641
7.777778	0.222222	0.074258
7.888889	0.222222	-0.034042
8.000000	0.222222	-0.141921
8.111111	0.222222	-0.248051
8.222222	0.222222	-0.351121
8.333333	0.222222	-0.449861
8.444444	0.222222	-0.543052
8.555556	0.222222	-0.629547
8.666667	0.222222	-0.708277
8.777778	0.222222	-0.778272
8.888889	0.222222	-0.838668
9.000000	0.222222	-0.888721
9.111111	0.222222	-0.927814
9.222222	0.222222	-0.955464
9.333333	0.222222	-0.971330
9.444444	0.222222	-0.975217
9.555556	0.222222	-0.967076
9.666667	0.222222	-0.947008
9.777778	0.222222	-0.915262
9.888889	0.222222	0.098654
10.000000	0.222222	0.119898
0.000000	0.333333	0.000002
0.111111	0.333333	-0.036277
0.222222	0.333333	0.921716
0.333333	0.333333	0.892939
0.444444	0.333333	0.853150
0.555556	0.333333	0.802838
0.666667	0.333333	0.742626
0.777778	0.333333	0.673254
0.888889	0.333333	0.595580
1.000000	0.333333	0.510560
1.111111	0.333333	0.419243
1.222222	0.333333	0.322756
1.333333	0.333333	0.222288
1.444444	0.333333	0.119079
1.555556	0.333333	0.014401
1.666667	0.333333	-0.090454
1.777778	0.333333	-0.194194
1.888889	0.333333	-0.295539
2.000000	0.333333	-0.393239
2.111111	0.333333	-0.486089
2.222222	0.333333	-0.572944
2.333333	0.333333	-0.652733
2.444444	0.333333	-0.724472
2.555556	0.333333	-0.787276
2.666667	0.333333	-0.840371
2.777778	0.333333	-0.883101
2.888889	0.333333	-0.914940
3.000000	0.333333	-0.935496
3.111111	0.333333	-0.944513
3.222222	0.333333	-0.941882
3.333333	0.333333	-0.927635
3.444444	0.333333	-0.901947
3.555556	0.333333	-0.865136
3.666667	0.333333	-0.817655
3.777778	0.333333	-0.760089
3.888889	0.333333	-0.693150
4.000000	0.333333	-0.617662
4.111111	0.333333	-0.534556
4.222222	0.333333	-0.444858
4.333333	0.333333	-0.349673
4.444444	0.333333	-0.250176
4.555556	0.333333	-0.147593
4.666667	0.333333	-0.043190
4.777778	0.333333	0.061745
4.888889	0.333333	0.165919
5.000000	0.333333	0.268047
5.111111	0.333333	0.366869
5.222222	0.333333	0.461167
5.333333	0.333333	0.549776
5.444444	0.333333	0.631606
5.555556	0.333333	0.705646
5.666667	0.333333	0.770983
5.777778	0.333333	0.826812
5.888889	0.333333	0.872443
6.000000	0.333333	0.907315
6.111111	0.333333	0.930997
6.222222	0.333333	0.943197
6.333333	0.333333	0.943764
6.444444	0.333333	0.932692
6.555556	0.333333	0.910117
6.666667	0.333333	0.876318
6.777778	0.333333	0.831711
6.888889	0.333333	0.776847
7.000000	0.333333	0.712402
7.111111	0.333333	0.639170
7.222222	0.333333	0.558056
7.333333	0.333333	0.470059
7.444444	0.333333	0.376266
7.555556	0.333333	0.277831
7.666667	0.333333	0.175970
7.777778	0.333333	0.071939
7.888889	0.333333	-0.032979
8.000000	0.333333	-0.137491
8.111111	0.333333	-0.240306
8.222222	0.333333	-0.340159
8.333333	0.333333	-0.435816
8.444444	0.333333	-0.526098
8.555556	0.333333	-0.609892
8.666667	0.333333	-0.686164
8.777778	0.333333	-0.753973
8.888889	0.333333	-0.812484
9.000000	0.333333	-0.860975
9.111111	0.333333	-0.898847
9.222222	0.333333	-0.925633
9.333333	0.333333	-0.941004
9.444444	0.333333	-0.944769
9.555556	0.333333	-0.936883
9.666667	0.333333	-0.917442
9.777778	0.333333	-0.886686
9.888889	0.333333	0.146459
10.000000	0.333333	0.177997
0.000000	0.444444	0.000002
0.111111	0.444444	-0.047671
0.222222	0.444444	0.880644
0.333333	0.444444	0.853150
0.444444	0.444444	0.815133
0.555556	0.444444	0.767064
0.666667	0.444444	0.709534
0.777778	0.444444	0.643254
0.888889	0.444444	0.569041
1.000000	0.444444	0.487809
1.111111	0.444444	0.400562
1.222222	0.444444	0.308374
1.333333	0.444444	0.212383
1.444444	0.444444	0.113773
1.555556	0.444444	0.013760
1.666667	0.444444	-0.086424
1.777778	0.444444	-0.185541
1.888889	0.444444	-0.282370
2.000000	0.444444	-0.375716
2.111111	0.444444	-0.464429
2.222222	0.444444	-0.547414
2.333333	0.444444	-0.623648
2.444444	0.444444	-0.692190
2.555556	0.444444	-0.752195
2.666667	0.444444	-0.802924
2.777778	0.444444	-0.843750
2.888889	0.444444	-0.874171
3.000000	0.444444	-0.893810
3.111111	0.444444	-0.902426
3.222222	0.444444	-0.899912
3.333333	0.444444	-0.886300
3.444444	0.444444	-0.861756
3.555556	0.444444	-0.826585
3.666667	0.444444	-0.781220
3.777778	0.444444	-0.726220
3.888889	0.444444	-0.662263
4.000000	0.444444	-0.590139
4.111111	0.444444	-0.510736
4.222222	0.444444	-0.425035
4.333333	0.444444	-0.334092
4.444444	0.444444	-0.239028
4.555556	0.444444	-0.141017
4.666667	0.444444	-0.041266
4.777778	0.444444	0.058994
4.888889	0.444444	0.158526
5.000000	0.444444	0.256103
5.111111	0.444444	0.350522
5.222222	0.444444	0.440617
5.333333	0.444444	0.525278
5.444444	0.444444	0.603462
5.555556	0.444444	0.674202
5.666667	0.444444	0.736628
5.777778	0.444444	0.789969
5.888889	0.444444	0.833567
6.000000	0.444444	0.866885
6.111111	0.444444	0.889512
6.222222	0.444444	0.901168
6.333333	0.444444	0.901710
6.444444	0.444444	0.891131
6.555556	0.444444	0.869563
6.666667	0.444444	0.837269
6.777778	0.444444	0.794650
6.888889	0.444444	0.742231
7.000000	0.444444	0.680657
7.111111	0.444444	0.610689
7.222222	0.444444	0.533189
7.333333	0.444444	0.449114
7.444444	0.444444	0.359499
7.555556	0.444444	0.265451
7.666667	0.444444	0.168129
7.777778	0.444444	0.068734
7.888889	0.444444	-0.031509
8.000000	0.444444	-0.131364
8.111111	0.444444	-0.229598
8.222222	0.444444	-0.325001
8.333333	0.444444	-0.416396
8.444444	0.444444	-0.502655
8.555556	0.444444	-0.582715
8.666667	0.444444	-0.655588
8.777778	0.444444	-0.720376
8.888889	0.444444	-0.776280
9.000000	0.444444	-0.822609
9.111111	0.444444	-0.858794
9.222222	0.444444	-0.884387
9.333333	0.444444	-0.899073
9.444444	0.444444	-0.902670
9.555556	0.444444	-0.895136
9.666667	0.444444	-0.876561
9.777778	0.444444	-0.847176
9.888889	0.444444	0.192457
10.000000	0.444444	0.233900
0.000000	0.555556	0.000003
0.111111	0.555556	-0.058477
0.222222	0.555556	0.828712
0.333333	0.555556	0.802838
0.444444	0.555556	0.767064
0.555556	0.555556	0.721829
0.666667	0.555556	0.667692
0.777778	0.555556	0.605321
0.888889	0.555556	0.535484
1.000000	0.555556	0.459043
1.111111	0.555556	0.376940
1.222222	0.555556	0.290189
1.333333	0.555556	0.199859
1.444444	0.555556	0.107064
1.555556	0.555556	0.012948
1.666667	0.555556	-0.081327
1.777778	0.555556	-0.174599
1.888889	0.555556	-0.265718
2.000000	0.555556	-0.353560
2.111111	0.555556	-0.437041
2.222222	0.555556	-0.515132
2.333333	0.555556	-0.586870
2.444444	0.555556	-0.651371
2.555556	0.555556	-0.707838
2.666667	0.555556	-0.755575
2.777778	0.555556	-0.793993
2.888889	0.555556	-0.822620
3.000000	0.555556	-0.841101
3.111111	0.555556	-0.849209
3.222222	0.555556	-0.846843
3.333333	0.555556	-0.834033
3.444444	0.555556	-0.810938
3.555556	0.555556	-0.777841
3.666667	0.555556	-0.735151
3.777778	0.555556	-0.683394
3.888889	0.555556	-0.623209
4.000000	0.555556	-0.555338
4.111111	0.555556	-0.480618
4.222222	0.555556	-0.399970
4.333333	0.555556	-0.314390
4.444444	0.555556	-0.224932
4.555556	0.555556	-0.132701
4.666667	0.555556	-0.038832
4.777778	0.555556	0.055515
4.888889	0.555556	0.149178
5.000000	0.555556	0.241000
5.111111	0.555556	0.329851
5.222222	0.555556	0.414633
5.333333	0.555556	0.494302
5.444444	0.555556	0.567875
5.555556	0.555556	0.634444
5.666667	0.555556	0.693188
5.777778	0.555556	0.743384
5.888889	0.555556	0.784411
6.000000	0.555556	0.815764
6.111111	0.555556	0.837056
6.222222	0.555556	0.848025
6.333333	0.555556	0.848535
6.444444	0.555556	0.838580
6.555556	0.555556	0.818283
6.666667	0.555556	0.787895
6.777778	0.555556	0.747789
6.888889	0.555556	0.698460
7.000000	0.555556	0.640518
7.111111	0.555556	0.574676
7.222222	0.555556	0.501746
7.333333	0.555556	0.422629
7.444444	0.555556	0.338299
7.555556	0.555556	0.249797
7.666667	0.555556	0.158214
7.777778	0.555556	0.064680
7.888889	0.555556	-0.029651
8.000000	0.555556	-0.123617
8.111111	0.555556	-0.216059
8.222222	0.555556	-0.305836
8.333333	0.555556	-0.391840
8.444444	0.555556	-0.473013
8.555556	0.555556	-0.548352
8.666667	0.555556	-0.616927
8.777778	0.555556	-0.677895
8.888889	0.555556	-0.730502
9.000000	0.555556	-0.774099
9.111111	0.555556	-0.808150
9.222222	0.555556	-0.832234
9.333333	0.555556	-0.846053
9.444444	0.555556	-0.849439
9.555556	0.555556	-0.842348
9.666667	0.555556	-0.824869
9.777778	0.555556	-0.797217
9.888889	0.555556	0.236081
10.000000	0.555556	0.286919
0.000000	0.666667	0.000003
0.111111	0.666667	-0.068561
0.222222	0.666667	0.766558
0.333333	0.666667	0.742626
0.444444	0.666667	0.709534
0.555556	0.666667	0.667692
0.666667	0.666667	0.617616
0.777778	0.666667	0.559922
0.888889	0.666667	0.495323
1.000000	0.666667	0.424615
1.111111	0.666667	0.348670
1.222222	0.666667	0.268425
1.333333	0.666667	0.184869
1.444444	0.666667	0.099034
1.555556	0.666667	0.011977
1.666667	0.666667	-0.075228
1.777778	0.666667	-0.161504
1.888889	0.666667	-0.245789
2.000000	0.666667	-0.327043
2.111111	0.666667	-0.404263
2.222222	0.666667	-0.476497
2.333333	0.666667	-0.542855
2.444444	0.666667	-0.602518
2.555556	0.666667	-0.654750
2.666667	0.666667	-0.698907
2.777778	0.666667	-0.734444
2.888889	0.666667	-0.760924
3.000000	0.666667	-0.778019
3.111111	0.666667	-0.785518
3.222222	0.666667	-0.783330
3.333333	0.666667	-0.771481
3.444444	0.666667	-0.750118
3.555556	0.666667	-0.719503
3.666667	0.666667	-0.680014
3.777778	0.666667	-0.632139
3.888889	0.666667	-0.576468
4.000000	0.666667	-0.513688
4.111111	0.666667	-0.444572
4.222222	0.666667	-0.369973
4.333333	0.666667	-0.290811
4.444444	0.666667	-0.208063
4.555556	0.666667	-0.122748
4.666667	0.666667	-0.035920
4.777778	0.666667	0.051351
4.888889	0.666667	0.137989
5.000000	0.666667	0.222925
5.111111	0.666667	0.305112
5.222222	0.666667	0.383536
5.333333	0.666667	0.457230
5.444444	0.666667	0.525284
5.555556	0.666667	0.586861
5.666667	0.666667	0.641199
5.777778	0.666667	0.687630
5.888889	0.666667	0.725580
6.000000	0.666667	0.754582
6.111111	0.666667	0.774277
6.222222	0.666667	0.784423
6.333333	0.666667	0.784895
6.444444	0.666667	0.775687
6.555556	0.666667	0.756912
6.666667	0.666667	0.728803
6.777778	0.666667	0.691705
6.888889	0.666667	0.646076
7.000000	0.666667	0.592479
7.111111	0.666667	0.531575
7.222222	0.666667	0.464116
7.333333	0.666667	0.390932
7.444444	0.666667	0.312927
7.555556	0.666667	0.231062
7.666667	0.666667	0.146348
7.777778	0.666667	0.059829
7.888889	0.666667	-0.027427
8.000000	0.666667	-0.114346
8.111111	0.666667	-0.199854
8.222222	0.666667	-0.282898
8.333333	0.666667	-0.362453
8.444444	0.666667	-0.437537
8.555556	0.666667	-0.507225
8.666667	0.666667	-0.570658
8.777778	0.666667	-0.627053
8.888889	0.666667	-0.675714
9.000000	0.666667	-0.716042
9.111111	0.666667	-0.747539
9.222222	0.666667	-0.769816
9.333333	0.666667	-0.782600
9.444444	0.666667	-0.785731
9.555556	0.666667	-0.779172
9.666667	0.666667	-0.763004
9.777778	0.666667	-0.737426
9.888889	0.666667	0.276794
10.000000	0.666667	0.336399
0.000000	0.777778	0.000004
0.111111	0.777778	-0.077800
0.222222	0.777778	0.694951
0.333333	0.777778	0.673254
0.444444	0.777778	0.643254
0.555556	0.777778	0.605321
0.666667	0.777778	0.559922
0.777778	0.777778	0.507618
0.888889	0.777778	0.449053
1.000000	0.777778	0.384950
1.111111	0.777778	0.316099
1.222222	0.777778	0.243350
1.333333	0.777778	0.167600
1.444444	0.777778	0.089783
1.555556	0.777778	0.010858
1.666667	0.777778	-0.068200
1.777778	0.777778	-0.146418
1.888889	0.777778	-0.222829
2.000000	0.777778	-0.296493
2.111111	0.777778	-0.366499
2.222222	0.777778	-0.431986
2.333333	0.777778	-0.492145
2.444444	0.777778	-0.546235
2.555556	0.777778	-0.593587
2.666667	0.777778	-0.633619
2.777778	0.777778	-0.665837
2.888889	0.777778	-0.689843
3.000000	0.777778	-0.705341
3.111111	0.777778	-0.712140
3.222222	0.777778	-0.710156
3.333333	0.777778	-0.699414
3.444444	0.777778	-0.680046
3.555556	0.777778	-0.652291
3.666667	0.777778	-0.616492
3.777778	0.777778	-0.573089
3.888889	0.777778	-0.522618
4.000000	0.777778	-0.465702
4.111111	0.777778	-0.403042
4.222222	0.777778	-0.335412
4.333333	0.777778	-0.263645
4.444444	0.777778	-0.188627
4.555556	0.777778	-0.111282
4.666667	0.777778	-0.032564
4.777778	0.777778	0.046554
4.888889	0.777778	0.125099
5.000000	0.777778	0.202101
5.111111	0.777778	0.276610
5.222222	0.777778	0.347708
5.333333	0.777778	0.414518
5.444444	0.777778	0.476216
5.555556	0.777778	0.532040
5.666667	0.777778	0.581302
5.777778	0.777778	0.623396
5.888889	0.777778	0.657801
6.000000	0.777778	0.684093
6.111111	0.777778	0.701949
6.222222	0.777778	0.711147
6.333333	0.777778	0.711575
6.444444	0.777778	0.703227
6.555556	0.777778	0.686206
6.666667	0.777778	0.660723
6.777778	0.777778	0.627090
6.888889	0.777778	0.585724
7.000000	0.777778	0.537134
7.111111	0.777778	0.481919
7.222222	0.777778	0.420761
7.333333	0.777778	0.354413
7.444444	0.777778	0.283695
7.555556	0.777778	0.209478
7.666667	0.777778	0.132677
7.777778	0.777778	0.054241
7.888889	0.777778	-0.024865
8.000000	0.777778	-0.103665
8.111111	0.777778	-0.181185
8.222222	0.777778	-0.256471
8.333333	0.777778	-0.328595
8.444444	0.777778	-0.396665
8.555556	0.777778	-0.459844
8.666667	0.777778	-0.517351
8.777778	0.777778	-0.568478
8.888889	0.777778	-0.612593
9.000000	0.777778	-0.649154
9.111111	0.777778	-0.677709
9.222222	0.777778	-0.697905
9.333333	0.777778	-0.709494
9.444444	0.777778	-0.712333
9.555556	0.777778	-0.706387
9.666667	0.777778	-0.691729
9.777778	0.777778	-0.668540
9.888889	0.777778	0.314094
10.000000	0.777778	0.381730
0.000000	0.888889	0.000004
0.111111	0.888889	-0.086079
0.222222	0.888889	0.614774
0.333333	0.888889	0.595580
0.444444	0.888889	0.569041
0.555556	0.888889	0.535484
0.666667	0.888889	0.495323
0.777778	0.888889	0.449053
0.888889	0.888889	0.397245
1.000000	0.888889	0.340537
1.111111	0.888889	0.279630
1.222222	0.888889	0.215274
1.333333	0.888889	0.148264
1.444444	0.888889	0.079424
1.555556	0.888889	0.009605
1.666667	0.888889	-0.060332
1.777778	0.888889	-0.129525
1.888889	0.888889	-0.197121
2.000000	0.888889	-0.262286
2.111111	0.888889	-0.324216
2.222222	0.888889	-0.382147
2.333333	0.888889	-0.435365
2.444444	0.888889	-0.483214
2.555556	0.888889	-0.525104
2.666667	0.888889	-0.560518
2.777778	0.888889	-0.589018
2.888889	0.888889	-0.610254
3.000000	0.888889	-0.623964
3.111111	0.888889	-0.629979
3.222222	0.888889	-0.628224
3.333333	0.888889	-0.618721
3.444444	0.888889	-0.601588
3.555556	0.888889	-0.577035
3.666667	0.888889	-0.545366
3.777778	0.888889	-0.506971
3.888889	0.888889	-0.462323
4.000000	0.888889	-0.411973
4.111111	0.888889	-0.356543
4.222222	0.888889	-0.296715
4.333333	0.888889	-0.233228
4.444444	0.888889	-0.166864
4.555556	0.888889	-0.098443
4.666667	0.888889	-0.028807
4.777778	0.888889	0.041183
4.888889	0.888889	0.110666
5.000000	0.888889	0.178784
5.111111	0.888889	0.244697
5.222222	0.888889	0.307593
5.333333	0.888889	0.366694
5.444444	0.888889	0.421274
5.555556	0.888889	0.470657
5.666667	0.888889	0.514236
5.777778	0.888889	0.551474
5.888889	0.888889	0.581909
6.000000	0.888889	0.605168
6.111111	0.888889	0.620964
6.222222	0.888889	0.629101
6.333333	0.888889	0.629480
6.444444	0.888889	0.622095
6.555556	0.888889	0.607037
6.666667	0.888889	0.584494
6.777778	0.888889	0.554741
6.888889	0.888889	0.518148
7.000000	0.888889	0.475163
7.111111	0.888889	0.426319
7.222222	0.888889	0.372217
7.333333	0.888889	0.313524
7.444444	0.888889	0.250965
7.555556	0.888889	0.185310
7.666667	0.888889	0.117370
7.777778	0.888889	0.047983
7.888889	0.888889	-0.021997
8.000000	0.888889	-0.091705
8.111111	0.888889	-0.160282
8.222222	0.888889	-0.226882
8.333333	0.888889	-0.290684
8.444444	0.888889	-0.350901
8.555556	0.888889	-0.406790
8.666667	0.888889	-0.457663
8.777778	0.888889	-0.502891
8.888889	0.888889	-0.541917
9.000000	0.888889	-0.574260
9.111111	0.888889	-0.599520
9.222222	0.888889	-0.617386
9.333333	0.888889	-0.627638
9.444444	0.888889	-0.630150
9.555556	0.888889	-0.624890
9.666667	0.888889	-0.611923
9.777778	0.888889	-0.591409
9.888889	0.888889	0.347519
10.000000	0.888889	0.422354
0.000000	1.000000	0.000005
0.111111	1.000000	-0.093297
0.222222	1.000000	0.527014
0.333333	1.000000	0.510560
0.444444	1.000000	0.487809
0.555556	1.000000	0.459043
0.666667	1.000000	0.424615
0.777778	1.000000	0.384950
0.888889	1.000000	0.340537
1.000000	1.000000	0.291925
1.111111	1.000000	0.239713
1.222222	1.000000	0.184544
1.333333	1.000000	0.127099
1.444444	1.000000	0.068086
1.555556	1.000000	0.008234
1.666667	1.000000	-0.051719
1.777778	1.000000	-0.111035
1.888889	1.000000	-0.168982
2.000000	1.000000	-0.224844
2.111111	1.000000	-0.277933
2.222222	1.000000	-0.327595
2.333333	1.000000	-0.373216
2.444444	1.000000	-0.414235
2.555556	1.000000	-0.450145
2.666667	1.000000	-0.480503
2.777778	1.000000	-0.504935
2.888889	1.000000	-0.523140
3.000000	1.000000	-0.534893
3.111111	1.000000	-0.540049
3.222222	1.000000	-0.538544
3.333333	1.000000	-0.530398
3.444444	1.000000	-0.515710
3.555556	1.000000	-0.494663
3.666667	1.000000	-0.467514
3.777778	1.000000	-0.434600
3.888889	1.000000	-0.396325
4.000000	1.000000	-0.353163
4.111111	1.000000	-0.305646
4.222222	1.000000	-0.254358
4.333333	1.000000	-0.199934
4.444444	1.000000	-0.143044
4.555556	1.000000	-0.084390
4.666667	1.000000	-0.024695
4.777778	1.000000	0.035304
4.888889	1.000000	0.094868
5.000000	1.000000	0.153263
5.111111	1.000000	0.209766
5.222222	1.000000	0.263683
5.333333	1.000000	0.314348
5.444444	1.000000	0.361136
5.555556	1.000000	0.403470
5.666667	1.000000	0.440828
5.777778	1.000000	0.472750
5.888889	1.000000	0.498841
6.000000	1.000000	0.518780
6.111111	1.000000	0.532320
6.222222	1.000000	0.539296
6.333333	1.000000	0.539620
6.444444	1.000000	0.533290
6.555556	1.000000	0.520382
6.666667	1.000000	0.501056
6.777778	1.000000	0.475551
6.888889	1.000000	0.444181
7.000000	1.000000	0.407333
7.111111	1.000000	0.365461
7.222222	1.000000	0.319082
7.333333	1.000000	0.268768
7.444444	1.000000	0.215139
7.555556	1.000000	0.158857
7.666667	1.000000	0.100615
7.777778	1.000000	0.041133
7.888889	1.000000	-0.018857
8.000000	1.000000	-0.078614
8.111111	1.000000	-0.137401
8.222222	1.000000	-0.194494
8.333333	1.000000	-0.249188
8.444444	1.000000	-0.300809
8.555556	1.000000	-0.348721
8.666667	1.000000	-0.392331
8.777778	1.000000	-0.431103
8.888889	1.000000	-0.464558
9.000000	1.000000	-0.492283
9.111111	1.000000	-0.513938
9.222222	1.000000	-0.529253
9.333333	1.000000	-0.538042
9.444444	1.000000	-0.540195
9.555556	1.000000	-0.535686
9.666667	1.000000	-0.524570
9.777778	1.000000	-0.506985
9.888889	1.000000	0.376659
10.000000	1.000000	0.457768
0.000000	1.111111	0.000005
0.111111	1.111111	-0.099364
0.222222	1.111111	0.432754
0.333333	1.111111	0.419243
0.444444	1.111111	0.400562
0.555556	1.111111	0.376940
0.666667	1.111111	0.348670
0.777778	1.111111	0.316099
0.888889	1.111111	0.279630
1.000000	1.111111	0.239713
1.111111	1.111111	0.196839
1.222222	1.111111	0.151537
1.333333	1.111111	0.104366
1.444444	1.111111	0.055909
1.555556	1.111111	0.006762
1.666667	1.111111	-0.042469
1.777778	1.111111	-0.091176
1.888889	1.111111	-0.138758
2.000000	1.111111	-0.184629
2.111111	1.111111	-0.228223
2.222222	1.111111	-0.269003
2.333333	1.111111	-0.306464
2.444444	1.111111	-0.340146
2.555556	1.111111	-0.369634
2.666667	1.111111	-0.394562
2.777778	1.111111	-0.414624
2.888889	1.111111	-0.429573
3.000000	1.111111	-0.439224
3.111111	1.111111	-0.443458
3.222222	1.111111	-0.442222
3.333333	1.111111	-0.435533
3.444444	1.111111	-0.423473
3.555556	1.111111	-0.406189
3.666667	1.111111	-0.383896
3.777778	1.111111	-0.356869
3.888889	1.111111	-0.325440
4.000000	1.111111	-0.289998
4.111111	1.111111	-0.250979
4.222222	1.111111	-0.208865
4.333333	1.111111	-0.164175
4.444444	1.111111	-0.117460
4.555556	1.111111	-0.069296
4.666667	1.111111	-0.020278
4.777778	1.111111	0.028990
4.888889	1.111111	0.077901
5.000000	1.111111	0.125851
5.111111	1.111111	0.172248
5.222222	1.111111	0.216522
5.333333	1.111111	0.258125
5.444444	1.111111	0.296545
5.555556	1.111111	0.331307
5.666667	1.111111	0.361984
5.777778	1.111111	0.388196
5.888889	1.111111	0.409620
6.000000	1.111111	0.425993
6.111111	1.111111	0.437112
6.222222	1.111111	0.442840
6.333333	1.111111	0.443106
6.444444	1.111111	0.437908
6.555556	1.111111	0.427309
6.666667	1.111111	0.411439
6.777778	1.111111	0.390496
6.888889	1.111111	0.364737
7.000000	1.111111	0.334479
7.111111	1.111111	0.300096
7.222222	1.111111	0.262013
7.333333	1.111111	0.220697
7.444444	1.111111	0.176660
7.555556	1.111111	0.130444
7.666667	1.111111	0.082620
7.777778	1.111111	0.033776
7.888889	1.111111	-0.015484
8.000000	1.111111	-0.064553
8.111111	1.111111	-0.112826
8.222222	1.111111	-0.159708
8.333333	1.111111	-0.204620
8.444444	1.111111	-0.247008
8.555556	1.111111	-0.286350
8.666667	1.111111	-0.322160
8.777778	1.111111	-0.353997
8.888889	1.111111	-0.381469
9.000000	1.111111	-0.404235
9.111111	1.111111	-0.422017
9.222222	1.111111	-0.434593
9.333333	1.111111	-0.441810
9.444444	1.111111	-0.443578
9.555556	1.111111	-0.439875
9.666667	1.111111	-0.430748
9.777778	1.111111	-0.416307
9.888889	1.111111	0.401153
10.000000	1.111111	0.487537
0.000000	1.222222	0.000005
0.111111	1.222222	-0.104206
0.222222	1.222222	0.333157
0.333333	1.222222	0.322756
0.444444	1.222222	0.308374
0.555556	1.222222	0.290189
0.666667	1.222222	0.268425
0.777778	1.222222	0.243350
0.888889	1.222222	0.215274
1.000000	1.222222	0.184544
1.111111	1.222222	0.151537
1.222222	1.222222	0.116661
1.333333	1.222222	0.080347
1.444444	1.222222	0.043042
1.555556	1.222222	0.005205
1.666667	1.222222	-0.032695
1.777778	1.222222	-0.070192
1.888889	1.222222	-0.106824
2.000000	1.222222	-0.142138
2.111111	1.222222	-0.175699
2.222222	1.222222	-0.207093
2.333333	1.222222	-0.235933
2.444444	1.222222	-0.261863
2.555556	1.222222	-0.284564
2.666667	1.222222	-0.303755
2.777778	1.222222	-0.319200
2.888889	1.222222	-0.330708
3.000000	1.222222	-0.338138
3.111111	1.222222	-0.341398
3.222222	1.222222	-0.340447
3.333333	1.222222	-0.335297
3.444444	1.222222	-0.326012
3.555556	1.222222	-0.312706
3.666667	1.222222	-0.295544
3.777778	1.222222	-0.274737
3.888889	1.222222	-0.250541
4.000000	1.222222	-0.223256
4.111111	1.222222	-0.193217
4.222222	1.222222	-0.160795
4.333333	1.222222	-0.126391
4.444444	1.222222	-0.090427
4.555556	1.222222	-0.053348
4.666667	1.222222	-0.015611
4.777778	1.222222	0.022318
4.888889	1.222222	0.059972
5.000000	1.222222	0.096887
5.111111	1.222222	0.132606
5.222222	1.222222	0.166690