VARIABLES= "X","Y","PHI"
ZONE F=POINT
 I=91, J=91
0.000000	0.000000	0.000000
0.111111	0.000000	0.000000
0.222222	0.000000	0.000000
0.333333	0.000000	0.000000
0.444444	0.000000	0.000000
0.555556	0.000000	0.000000
0.666667	0.000000	0.000000
0.777778	0.000000	0.000000
0.888889	0.000000	0.000000
1.000000	0.000000	0.000000
1.111111	0.000000	0.000000
1.222222	0.000000	0.000000
1.333333	0.000000	0.000000
1.444444	0.000000	0.000000
1.555556	0.000000	0.000000
1.666667	0.000000	-0.000000
1.777778	0.000000	-0.000000
1.888889	0.000000	-0.000000
2.000000	0.000000	-0.000000
2.111111	0.000000	-0.000000
2.222222	0.000000	-0.000000
2.333333	0.000000	-0.000000
2.444444	0.000000	-0.000000
2.555556	0.000000	-0.000000
2.666667	0.000000	-0.000000
2.777778	0.000000	-0.000000
2.888889	0.000000	-0.000000
3.000000	0.000000	-0.000000
3.111111	0.000000	-0.000000
3.222222	0.000000	-0.000000
3.333333	0.000000	-0.000000
3.444444	0.000000	-0.000000
3.555556	0.000000	-0.000000
3.666667	0.000000	-0.000000
3.777778	0.000000	-0.000000
3.888889	0.000000	-0.000000
4.000000	0.000000	-0.000000
4.111111	0.000000	-0.000000
4.222222	0.000000	-0.000000
4.333333	0.000000	-0.000000
4.444444	0.000000	-0.000000
4.555556	0.000000	-0.000000
4.666667	0.000000	-0.000000
4.777778	0.000000	0.000000
4.888889	0.000000	0.000000
5.000000	0.000000	0.000000
5.111111	0.000000	0.000000
5.222222	0.000000	0.000000
5.333333	0.000000	0.000000
5.444444	0.000000	0.000000
5.555556	0.000000	0.000000
5.666667	0.000000	0.000000
5.777778	0.000000	0.000000
5.888889	0.000000	0.000000
6.000000	0.000000	0.000000
6.111111	0.000000	0.000000
6.222222	0.000000	0.000000
6.333333	0.000000	0.000000
6.444444	0.000000	0.000000
6.555556	0.000000	0.000000
6.666667	0.000000	0.000000
6.777778	0.000000	0.000000
6.888889	0.000000	0.000000
7.000000	0.000000	0.000000
7.111111	0.000000	0.000000
7.222222	0.000000	0.000000
7.333333	0.000000	0.000000
7.444444	0.000000	0.000000
7.555556	0.000000	0.000000
7.666667	0.000000	0.000000
7.777778	0.000000	0.000000
7.888889	0.000000	-0.000000
8.000000	0.000000	-0.000000
8.111111	0.000000	-0.000000
8.222222	0.000000	-0.000000
8.333333	0.000000	-0.000000
8.444444	0.000000	-0.000000
8.555556	0.000000	-0.000000
8.666667	0.000000	-0.000000
8.777778	0.000000	-0.000000
8.888889	0.000000	-0.000000
9.000000	0.000000	-0.000000
9.111111	0.000000	-0.000000
9.222222	0.000000	-0.000000
9.333333	0.000000	-0.000000
9.444444	0.000000	-0.000000
9.555556	0.000000	-0.000000
9.666667	0.000000	-0.000000
9.777778	0.000000	-0.000000
9.888889	0.000000	-0.000000
10.000000	0.000000	-0.000000
0.000000	0.111111	0.110883
0.111111	0.111111	0.110199
0.222222	0.111111	0.108156
0.333333	0.111111	0.104779
0.444444	0.111111	0.100110
0.555556	0.111111	0.094207
0.666667	0.111111	0.087141
0.777778	0.111111	0.079001
0.888889	0.111111	0.069887
1.000000	0.111111	0.059910
1.111111	0.111111	0.049195
1.222222	0.111111	0.037873
1.333333	0.111111	0.026084
1.444444	0.111111	0.013973
1.555556	0.111111	0.001690
1.666667	0.111111	-0.010614
1.777778	0.111111	-0.022787
1.888889	0.111111	-0.034679
2.000000	0.111111	-0.046143
2.111111	0.111111	-0.057039
2.222222	0.111111	-0.067230
2.333333	0.111111	-0.076593
2.444444	0.111111	-0.085011
2.555556	0.111111	-0.092381
2.666667	0.111111	-0.098611
2.777778	0.111111	-0.103625
2.888889	0.111111	-0.107361
3.000000	0.111111	-0.109773
3.111111	0.111111	-0.110831
3.222222	0.111111	-0.110522
3.333333	0.111111	-0.108851
3.444444	0.111111	-0.105836
3.555556	0.111111	-0.101517
3.666667	0.111111	-0.095945
3.777778	0.111111	-0.089190
3.888889	0.111111	-0.081336
4.000000	0.111111	-0.072478
4.111111	0.111111	-0.062726
4.222222	0.111111	-0.052201
4.333333	0.111111	-0.041031
4.444444	0.111111	-0.029356
4.555556	0.111111	-0.017319
4.666667	0.111111	-0.005068
4.777778	0.111111	0.007245
4.888889	0.111111	0.019469
5.000000	0.111111	0.031453
5.111111	0.111111	0.043049
5.222222	0.111111	0.054114
5.333333	0.111111	0.064512
5.444444	0.111111	0.074114
5.555556	0.111111	0.082802
5.666667	0.111111	0.090469
5.777778	0.111111	0.097020
5.888889	0.111111	0.102374
6.000000	0.111111	0.106466
6.111111	0.111111	0.109245
6.222222	0.111111	0.110677
6.333333	0.111111	0.110743
6.444444	0.111111	0.109444
6.555556	0.111111	0.106795
6.666667	0.111111	0.102829
6.777778	0.111111	0.097595
6.888889	0.111111	0.091157
7.000000	0.111111	0.083595
7.111111	0.111111	0.075002
7.222222	0.111111	0.065483
7.333333	0.111111	0.055158
7.444444	0.111111	0.044152
7.555556	0.111111	0.032601
7.666667	0.111111	0.020649
7.777778	0.111111	0.008442
7.888889	0.111111	-0.003870
8.000000	0.111111	-0.016133
8.111111	0.111111	-0.028198
8.222222	0.111111	-0.039915
8.333333	0.111111	-0.051140
8.444444	0.111111	-0.061733
8.555556	0.111111	-0.071566
8.666667	0.111111	-0.080516
8.777778	0.111111	-0.088473
8.888889	0.111111	-0.095339
9.000000	0.111111	-0.101029
9.111111	0.111111	-0.105473
9.222222	0.111111	-0.108616
9.333333	0.111111	-0.110419
9.444444	0.111111	-0.110861
9.555556	0.111111	-0.109936
9.666667	0.111111	-0.107655
9.777778	0.111111	-0.104046
9.888889	0.111111	-0.099153
10.000000	0.111111	-0.093038
0.000000	0.222222	0.220398
0.111111	0.222222	0.219039
0.222222	0.222222	0.214978
0.333333	0.222222	0.208266
0.444444	0.222222	0.198986
0.555556	0.222222	0.187252
0.666667	0.222222	0.173208
0.777778	0.222222	0.157028
0.888889	0.222222	0.138911
1.000000	0.222222	0.119081
1.111111	0.222222	0.097783
1.222222	0.222222	0.075279
1.333333	0.222222	0.051846
1.444444	0.222222	0.027774
1.555556	0.222222	0.003359
1.666667	0.222222	-0.021097
1.777778	0.222222	-0.045293
1.888889	0.222222	-0.068931
2.000000	0.222222	-0.091718
2.111111	0.222222	-0.113374
2.222222	0.222222	-0.133632
2.333333	0.222222	-0.152242
2.444444	0.222222	-0.168974
2.555556	0.222222	-0.183622
2.666667	0.222222	-0.196006
2.777778	0.222222	-0.205972
2.888889	0.222222	-0.213398
3.000000	0.222222	-0.218192
3.111111	0.222222	-0.220295
3.222222	0.222222	-0.219682
3.333333	0.222222	-0.216359
3.444444	0.222222	-0.210367
3.555556	0.222222	-0.201782
3.666667	0.222222	-0.190707
3.777778	0.222222	-0.177281
3.888889	0.222222	-0.161668
4.000000	0.222222	-0.144062
4.111111	0.222222	-0.124678
4.222222	0.222222	-0.103757
4.333333	0.222222	-0.081557
4.444444	0.222222	-0.058350
4.555556	0.222222	-0.034424
4.666667	0.222222	-0.010074
4.777778	0.222222	0.014401
4.888889	0.222222	0.038699
5.000000	0.222222	0.062519
5.111111	0.222222	0.085567
5.222222	0.222222	0.107561
5.333333	0.222222	0.128228
5.444444	0.222222	0.147314
5.555556	0.222222	0.164583
5.666667	0.222222	0.179822
5.777778	0.222222	0.192843
5.888889	0.222222	0.203486
6.000000	0.222222	0.211619
6.111111	0.222222	0.217143
6.222222	0.222222	0.219988
6.333333	0.222222	0.220121
6.444444	0.222222	0.217538
6.555556	0.222222	0.212273
6.666667	0.222222	0.204390
6.777778	0.222222	0.193986
6.888889	0.222222	0.181189
7.000000	0.222222	0.166158
7.111111	0.222222	0.149078
7.222222	0.222222	0.130159
7.333333	0.222222	0.109635
7.444444	0.222222	0.087759
7.555556	0.222222	0.064801
7.666667	0.222222	0.041043
7.777778	0.222222	0.016779
7.888889	0.222222	-0.007692
8.000000	0.222222	-0.032068
8.111111	0.222222	-0.056048
8.222222	0.222222	-0.079338
8.333333	0.222222	-0.101648
8.444444	0.222222	-0.122705
8.555556	0.222222	-0.142249
8.666667	0.222222	-0.160039
8.777778	0.222222	-0.175854
8.888889	0.222222	-0.189501
9.000000	0.222222	-0.200811
9.111111	0.222222	-0.209644
9.222222	0.222222	-0.215892
9.333333	0.222222	-0.219477
9.444444	0.222222	-0.220355
9.555556	0.222222	-0.218516
9.666667	0.222222	-0.213981
9.777778	0.222222	-0.206808
9.888889	0.222222	-0.197084
10.000000	0.222222	-0.184929
0.000000	0.333333	0.327195
0.111111	0.333333	0.325177
0.222222	0.333333	0.319149
0.333333	0.333333	0.309185
0.444444	0.333333	0.295408
0.555556	0.333333	0.277987
0.666667	0.333333	0.257138
0.777778	0.333333	0.233118
0.888889	0.333333	0.206223
1.000000	0.333333	0.176784
1.111111	0.333333	0.145165
1.222222	0.333333	0.111756
1.333333	0.333333	0.076968
1.444444	0.333333	0.041232
1.555556	0.333333	0.004987
1.666667	0.333333	-0.031320
1.777778	0.333333	-0.067241
1.888889	0.333333	-0.102332
2.000000	0.333333	-0.136161
2.111111	0.333333	-0.168311
2.222222	0.333333	-0.198385
2.333333	0.333333	-0.226012
2.444444	0.333333	-0.250852
2.555556	0.333333	-0.272599
2.666667	0.333333	-0.290983
2.777778	0.333333	-0.305779
2.888889	0.333333	-0.316803
3.000000	0.333333	-0.323920
3.111111	0.333333	-0.327043
3.222222	0.333333	-0.326132
3.333333	0.333333	-0.321199
3.444444	0.333333	-0.312304
3.555556	0.333333	-0.299558
3.666667	0.333333	-0.283117
3.777778	0.333333	-0.263185
3.888889	0.333333	-0.240007
4.000000	0.333333	-0.213869
4.111111	0.333333	-0.185093
4.222222	0.333333	-0.154034
4.333333	0.333333	-0.121076
4.444444	0.333333	-0.086625
4.555556	0.333333	-0.051105
4.666667	0.333333	-0.014955
4.777778	0.333333	0.021380
4.888889	0.333333	0.057450
5.000000	0.333333	0.092813
5.111111	0.333333	0.127030
5.222222	0.333333	0.159681
5.333333	0.333333	0.190363
5.444444	0.333333	0.218697
5.555556	0.333333	0.244334
5.666667	0.333333	0.266957
5.777778	0.333333	0.286288
5.888889	0.333333	0.302088
6.000000	0.333333	0.314163
6.111111	0.333333	0.322363
6.222222	0.333333	0.326587
6.333333	0.333333	0.326783
6.444444	0.333333	0.322950
6.555556	0.333333	0.315133
6.666667	0.333333	0.303430
6.777778	0.333333	0.287984
6.888889	0.333333	0.268987
7.000000	0.333333	0.246673
7.111111	0.333333	0.221316
7.222222	0.333333	0.193230
7.333333	0.333333	0.162761
7.444444	0.333333	0.130284
7.555556	0.333333	0.096201
7.666667	0.333333	0.060931
7.777778	0.333333	0.024909
7.888889	0.333333	-0.011419
8.000000	0.333333	-0.047607
8.111111	0.333333	-0.083207
8.222222	0.333333	-0.117782
8.333333	0.333333	-0.150904
8.444444	0.333333	-0.182164
8.555556	0.333333	-0.211178
8.666667	0.333333	-0.237588
8.777778	0.333333	-0.261067
8.888889	0.333333	-0.281327
9.000000	0.333333	-0.298117
9.111111	0.333333	-0.311230
9.222222	0.333333	-0.320505
9.333333	0.333333	-0.325828
9.444444	0.333333	-0.327131
9.555556	0.333333	-0.324401
9.666667	0.333333	-0.317669
9.777778	0.333333	-0.307020
9.888889	0.333333	-0.292584
10.000000	0.333333	-0.274540
0.000000	0.444444	0.429956
0.111111	0.444444	0.427305
0.222222	0.444444	0.419384
0.333333	0.444444	0.406290
0.444444	0.444444	0.388186
0.555556	0.444444	0.365294
0.666667	0.444444	0.337897
0.777778	0.444444	0.306333
0.888889	0.444444	0.270991
1.000000	0.444444	0.232306
1.111111	0.444444	0.190757
1.222222	0.444444	0.146855
1.333333	0.444444	0.101142
1.444444	0.444444	0.054181
1.555556	0.444444	0.006553
1.666667	0.444444	-0.041157
1.777778	0.444444	-0.088359
1.888889	0.444444	-0.134471
2.000000	0.444444	-0.178925
2.111111	0.444444	-0.221172
2.222222	0.444444	-0.260692
2.333333	0.444444	-0.296996
2.444444	0.444444	-0.329637
2.555556	0.444444	-0.358213
2.666667	0.444444	-0.382372
2.777778	0.444444	-0.401814
2.888889	0.444444	-0.416301
3.000000	0.444444	-0.425654
3.111111	0.444444	-0.429757
3.222222	0.444444	-0.428560
3.333333	0.444444	-0.422077
3.444444	0.444444	-0.410389
3.555556	0.444444	-0.393640
3.666667	0.444444	-0.372036
3.777778	0.444444	-0.345843
3.888889	0.444444	-0.315386
4.000000	0.444444	-0.281038
4.111111	0.444444	-0.243225
4.222222	0.444444	-0.202412
4.333333	0.444444	-0.159102
4.444444	0.444444	-0.113831
4.555556	0.444444	-0.067155
4.666667	0.444444	-0.019652
4.777778	0.444444	0.028094
4.888889	0.444444	0.075494
5.000000	0.444444	0.121962
5.111111	0.444444	0.166927
5.222222	0.444444	0.209832
5.333333	0.444444	0.250150
5.444444	0.444444	0.287383
5.555556	0.444444	0.321071
5.666667	0.444444	0.350800
5.777778	0.444444	0.376202
5.888889	0.444444	0.396965
6.000000	0.444444	0.412831
6.111111	0.444444	0.423607
6.222222	0.444444	0.429158
6.333333	0.444444	0.429416
6.444444	0.444444	0.424378
6.555556	0.444444	0.414106
6.666667	0.444444	0.398728
6.777778	0.444444	0.378431
6.888889	0.444444	0.353468
7.000000	0.444444	0.324145
7.111111	0.444444	0.290825
7.222222	0.444444	0.253917
7.333333	0.444444	0.213879
7.444444	0.444444	0.171202
7.555556	0.444444	0.126414
7.666667	0.444444	0.080067
7.777778	0.444444	0.032733
7.888889	0.444444	-0.015006
8.000000	0.444444	-0.062559
8.111111	0.444444	-0.109340
8.222222	0.444444	-0.154773
8.333333	0.444444	-0.198298
8.444444	0.444444	-0.239376
8.555556	0.444444	-0.277503
8.666667	0.444444	-0.312207
8.777778	0.444444	-0.343060
8.888889	0.444444	-0.369683
9.000000	0.444444	-0.391746
9.111111	0.444444	-0.408978
9.222222	0.444444	-0.421166
9.333333	0.444444	-0.428160
9.444444	0.444444	-0.429873
9.555556	0.444444	-0.426285
9.666667	0.444444	-0.417439
9.777778	0.444444	-0.403445
9.888889	0.444444	-0.384476
10.000000	0.444444	-0.360764
0.000000	0.555556	0.527415
0.111111	0.555556	0.524163
0.222222	0.555556	0.514446
0.333333	0.555556	0.498385
0.444444	0.555556	0.476177
0.555556	0.555556	0.448096
0.666667	0.555556	0.414489
0.777778	0.555556	0.375770
0.888889	0.555556	0.332417
1.000000	0.555556	0.284964
1.111111	0.555556	0.233996
1.222222	0.555556	0.180143
1.333333	0.555556	0.124068
1.444444	0.555556	0.066463
1.555556	0.555556	0.008038
1.666667	0.555556	-0.050486
1.777778	0.555556	-0.108387
1.888889	0.555556	-0.164952
2.000000	0.555556	-0.219482
2.111111	0.555556	-0.271306
2.222222	0.555556	-0.319783
2.333333	0.555556	-0.364316
2.444444	0.555556	-0.404357
2.555556	0.555556	-0.439410
2.666667	0.555556	-0.469045
2.777778	0.555556	-0.492894
2.888889	0.555556	-0.510665
3.000000	0.555556	-0.522137
3.111111	0.555556	-0.527170
3.222222	0.555556	-0.525702
3.333333	0.555556	-0.517750
3.444444	0.555556	-0.503413
3.555556	0.555556	-0.482867
3.666667	0.555556	-0.456366
3.777778	0.555556	-0.424236
3.888889	0.555556	-0.386875
4.000000	0.555556	-0.344742
4.111111	0.555556	-0.298357
4.222222	0.555556	-0.248293
4.333333	0.555556	-0.195167
4.444444	0.555556	-0.139633
4.555556	0.555556	-0.082378
4.666667	0.555556	-0.024106
4.777778	0.555556	0.034462
4.888889	0.555556	0.092606
5.000000	0.555556	0.149608
5.111111	0.555556	0.204764
5.222222	0.555556	0.257395
5.333333	0.555556	0.306852
5.444444	0.555556	0.352524
5.555556	0.555556	0.393849
5.666667	0.555556	0.430316
5.777778	0.555556	0.461476
5.888889	0.555556	0.486945
6.000000	0.555556	0.506409
6.111111	0.555556	0.519626
6.222222	0.555556	0.526436
6.333333	0.555556	0.526752
6.444444	0.555556	0.520573
6.555556	0.555556	0.507973
6.666667	0.555556	0.489108
6.777778	0.555556	0.464211
6.888889	0.555556	0.433589
7.000000	0.555556	0.397620
7.111111	0.555556	0.356746
7.222222	0.555556	0.311473
7.333333	0.555556	0.262359
7.444444	0.555556	0.210009
7.555556	0.555556	0.155069
7.666667	0.555556	0.098216
7.777778	0.555556	0.040152
7.888889	0.555556	-0.018407
8.000000	0.555556	-0.076739
8.111111	0.555556	-0.134125
8.222222	0.555556	-0.189856
8.333333	0.555556	-0.243246
8.444444	0.555556	-0.293636
8.555556	0.555556	-0.340405
8.666667	0.555556	-0.382975
8.777778	0.555556	-0.420822
8.888889	0.555556	-0.453480
9.000000	0.555556	-0.480544
9.111111	0.555556	-0.501682
9.222222	0.555556	-0.516633
9.333333	0.555556	-0.525212
9.444444	0.555556	-0.527313
9.555556	0.555556	-0.522912
9.666667	0.555556	-0.512061
9.777778	0.555556	-0.494895
9.888889	0.555556	-0.471625
10.000000	0.555556	-0.442539
0.000000	0.666667	0.618370
0.111111	0.666667	0.614557
0.222222	0.666667	0.603164
0.333333	0.666667	0.584333
0.444444	0.666667	0.558295
0.555556	0.666667	0.525372
0.666667	0.666667	0.485969
0.777778	0.666667	0.440573
0.888889	0.666667	0.389743
1.000000	0.666667	0.334107
1.111111	0.666667	0.274350
1.222222	0.666667	0.211209
1.333333	0.666667	0.145464
1.444444	0.666667	0.077924
1.555556	0.666667	0.009424
1.666667	0.666667	-0.059193
1.777778	0.666667	-0.127079
1.888889	0.666667	-0.193398
2.000000	0.666667	-0.257333
2.111111	0.666667	-0.318093
2.222222	0.666667	-0.374931
2.333333	0.666667	-0.427144
2.444444	0.666667	-0.474089
2.555556	0.666667	-0.515188
2.666667	0.666667	-0.549933
2.777778	0.666667	-0.577895
2.888889	0.666667	-0.598730
3.000000	0.666667	-0.612181
3.111111	0.666667	-0.618083
3.222222	0.666667	-0.616361
3.333333	0.666667	-0.607038
3.444444	0.666667	-0.590228
3.555556	0.666667	-0.566139
3.666667	0.666667	-0.535067
3.777778	0.666667	-0.497397
3.888889	0.666667	-0.453592
4.000000	0.666667	-0.404193
4.111111	0.666667	-0.349810
4.222222	0.666667	-0.291112
4.333333	0.666667	-0.228824
4.444444	0.666667	-0.163713
4.555556	0.666667	-0.096584
4.666667	0.666667	-0.028263
4.777778	0.666667	0.040406
4.888889	0.666667	0.108576
5.000000	0.666667	0.175408
5.111111	0.666667	0.240077
5.222222	0.666667	0.301784
5.333333	0.666667	0.359770
5.444444	0.666667	0.413318
5.555556	0.666667	0.461769
5.666667	0.666667	0.504526
5.777778	0.666667	0.541060
5.888889	0.666667	0.570920
6.000000	0.666667	0.593740
6.111111	0.666667	0.609238
6.222222	0.666667	0.617221
6.333333	0.666667	0.617592
6.444444	0.666667	0.610347
6.555556	0.666667	0.595574
6.666667	0.666667	0.573456
6.777778	0.666667	0.544266
6.888889	0.666667	0.508363
7.000000	0.666667	0.466190
7.111111	0.666667	0.418268
7.222222	0.666667	0.365188
7.333333	0.666667	0.307604
7.444444	0.666667	0.246225
7.555556	0.666667	0.181811
7.666667	0.666667	0.115154
7.777778	0.666667	0.047077
7.888889	0.666667	-0.021581
8.000000	0.666667	-0.089973
8.111111	0.666667	-0.157255
8.222222	0.666667	-0.222597
8.333333	0.666667	-0.285195
8.444444	0.666667	-0.344275
8.555556	0.666667	-0.399109
8.666667	0.666667	-0.449021
8.777778	0.666667	-0.493395
8.888889	0.666667	-0.531684
9.000000	0.666667	-0.563415
9.111111	0.666667	-0.588199
9.222222	0.666667	-0.605728
9.333333	0.666667	-0.615786
9.444444	0.666667	-0.618250
9.555556	0.666667	-0.613089
9.666667	0.666667	-0.600367
9.777778	0.666667	-0.580241
9.888889	0.666667	-0.552959
10.000000	0.666667	-0.518856
0.000000	0.777778	0.701698
0.111111	0.777778	0.697371
0.222222	0.777778	0.684443
0.333333	0.777778	0.663074
0.444444	0.777778	0.633528
0.555556	0.777778	0.596168
0.666667	0.777778	0.551455
0.777778	0.777778	0.499942
0.888889	0.777778	0.442263
1.000000	0.777778	0.379129
1.111111	0.777778	0.311320
1.222222	0.777778	0.239671
1.333333	0.777778	0.165066
1.444444	0.777778	0.088425
1.555556	0.777778	0.010694
1.666667	0.777778	-0.067169
1.777778	0.777778	-0.144204
1.888889	0.777778	-0.219460
2.000000	0.777778	-0.292009
2.111111	0.777778	-0.360958
2.222222	0.777778	-0.425454
2.333333	0.777778	-0.484704
2.444444	0.777778	-0.537975
2.555556	0.777778	-0.584612
2.666667	0.777778	-0.624039
2.777778	0.777778	-0.655769
2.888889	0.777778	-0.679412
3.000000	0.777778	-0.694676
3.111111	0.777778	-0.701372
3.222222	0.777778	-0.699418
3.333333	0.777778	-0.688839
3.444444	0.777778	-0.669763
3.555556	0.777778	-0.642428
3.666667	0.777778	-0.607170
3.777778	0.777778	-0.564423
3.888889	0.777778	-0.514716
4.000000	0.777778	-0.458660
4.111111	0.777778	-0.396948
4.222222	0.777778	-0.330340
4.333333	0.777778	-0.259659
4.444444	0.777778	-0.185774
4.555556	0.777778	-0.109599
4.666667	0.777778	-0.032072
4.777778	0.777778	0.045850
4.888889	0.777778	0.123208
5.000000	0.777778	0.199045
5.111111	0.777778	0.272428
5.222222	0.777778	0.342451
5.333333	0.777778	0.408250
5.444444	0.777778	0.469015
5.555556	0.777778	0.523995
5.666667	0.777778	0.572513
5.777778	0.777778	0.613970
5.888889	0.777778	0.647855
6.000000	0.777778	0.673749
6.111111	0.777778	0.691335
6.222222	0.777778	0.700394
6.333333	0.777778	0.700816
6.444444	0.777778	0.692594
6.555556	0.777778	0.675830
6.666667	0.777778	0.650732
6.777778	0.777778	0.617608
6.888889	0.777778	0.576867
7.000000	0.777778	0.529012
7.111111	0.777778	0.474632
7.222222	0.777778	0.414399
7.333333	0.777778	0.349054
7.444444	0.777778	0.279405
7.555556	0.777778	0.206311
7.666667	0.777778	0.130671
7.777778	0.777778	0.053420
7.888889	0.777778	-0.024489
8.000000	0.777778	-0.102097
8.111111	0.777778	-0.178446
8.222222	0.777778	-0.252593
8.333333	0.777778	-0.323626
8.444444	0.777778	-0.390667
8.555556	0.777778	-0.452890
8.666667	0.777778	-0.509528
8.777778	0.777778	-0.559882
8.888889	0.777778	-0.603330
9.000000	0.777778	-0.639338
9.111111	0.777778	-0.667461
9.222222	0.777778	-0.687352
9.333333	0.777778	-0.698766
9.444444	0.777778	-0.701562
9.555556	0.777778	-0.695706
9.666667	0.777778	-0.681270
9.777778	0.777778	-0.658431
9.888889	0.777778	-0.627472
10.000000	0.777778	-0.588775
0.000000	0.888889	0.776372
0.111111	0.888889	0.771584
0.222222	0.888889	0.757281
0.333333	0.888889	0.733638
0.444444	0.888889	0.700947
0.555556	0.888889	0.659611
0.666667	0.888889	0.610141
0.777778	0.888889	0.553145
0.888889	0.888889	0.489328
1.000000	0.888889	0.419476
1.111111	0.888889	0.344450
1.222222	0.888889	0.265176
1.333333	0.888889	0.182632
1.444444	0.888889	0.097835
1.555556	0.888889	0.011832
1.666667	0.888889	-0.074317
1.777778	0.888889	-0.159550
1.888889	0.888889	-0.242814
2.000000	0.888889	-0.323085
2.111111	0.888889	-0.399370
2.222222	0.888889	-0.470731
2.333333	0.888889	-0.536285
2.444444	0.888889	-0.595226
2.555556	0.888889	-0.646826
2.666667	0.888889	-0.690448
2.777778	0.888889	-0.725555
2.888889	0.888889	-0.751714
3.000000	0.888889	-0.768602
3.111111	0.888889	-0.776011
3.222222	0.888889	-0.773850
3.333333	0.888889	-0.762144
3.444444	0.888889	-0.741039
3.555556	0.888889	-0.710795
3.666667	0.888889	-0.671784
3.777778	0.888889	-0.624489
3.888889	0.888889	-0.569491
4.000000	0.888889	-0.507471
4.111111	0.888889	-0.439191
4.222222	0.888889	-0.365495
4.333333	0.888889	-0.287291
4.444444	0.888889	-0.205544
4.555556	0.888889	-0.121263
4.666667	0.888889	-0.035485
4.777778	0.888889	0.050730
4.888889	0.888889	0.136319
5.000000	0.888889	0.220227
5.111111	0.888889	0.301419
5.222222	0.888889	0.378894
5.333333	0.888889	0.451696
5.444444	0.888889	0.518927
5.555556	0.888889	0.579758
5.666667	0.888889	0.633439
5.777778	0.888889	0.679308
5.888889	0.888889	0.716799
6.000000	0.888889	0.745449
6.111111	0.888889	0.764906
6.222222	0.888889	0.774930
6.333333	0.888889	0.775396
6.444444	0.888889	0.766299
6.555556	0.888889	0.747752
6.666667	0.888889	0.719982
6.777778	0.888889	0.683333
6.888889	0.888889	0.638257
7.000000	0.888889	0.585309
7.111111	0.888889	0.525142
7.222222	0.888889	0.458498
7.333333	0.888889	0.386200
7.444444	0.888889	0.309140
7.555556	0.888889	0.228266
7.666667	0.888889	0.144577
7.777778	0.888889	0.059105
7.888889	0.888889	-0.027096
8.000000	0.888889	-0.112962
8.111111	0.888889	-0.197436
8.222222	0.888889	-0.279474
8.333333	0.888889	-0.358066
8.444444	0.888889	-0.432242
8.555556	0.888889	-0.501087
8.666667	0.888889	-0.563752
8.777778	0.888889	-0.619464
8.888889	0.888889	-0.667536
9.000000	0.888889	-0.707376
9.111111	0.888889	-0.738492
9.222222	0.888889	-0.760499
9.333333	0.888889	-0.773128
9.444444	0.888889	-0.776222
9.555556	0.888889	-0.769742
9.666667	0.888889	-0.753770
9.777778	0.888889	-0.728501
9.888889	0.888889	-0.694247
10.000000	0.888889	-0.651432
0.000000	1.000000	0.841471
0.111111	1.000000	0.836282
0.222222	1.000000	0.820779
0.333333	1.000000	0.795154
0.444444	1.000000	0.759722
0.555556	1.000000	0.714920
0.666667	1.000000	0.661301
0.777778	1.000000	0.599527
0.888889	1.000000	0.530358
1.000000	1.000000	0.454649
1.111111	1.000000	0.373332
1.222222	1.000000	0.287411
1.333333	1.000000	0.197946
1.444444	1.000000	0.106039
1.555556	1.000000	0.012824
1.666667	1.000000	-0.080549
1.777778	1.000000	-0.172928
1.888889	1.000000	-0.263175
2.000000	1.000000	-0.350175
2.111111	1.000000	-0.432858
2.222222	1.000000	-0.510201
2.333333	1.000000	-0.581253
2.444444	1.000000	-0.645136
2.555556	1.000000	-0.701062
2.666667	1.000000	-0.748343
2.777778	1.000000	-0.786393
2.888889	1.000000	-0.814746
3.000000	1.000000	-0.833050
3.111111	1.000000	-0.841080
3.222222	1.000000	-0.838737
3.333333	1.000000	-0.826050
3.444444	1.000000	-0.803176
3.555556	1.000000	-0.770395
3.666667	1.000000	-0.728114
3.777778	1.000000	-0.676852
3.888889	1.000000	-0.617244
4.000000	1.000000	-0.550022
4.111111	1.000000	-0.476017
4.222222	1.000000	-0.396142
4.333333	1.000000	-0.311381
4.444444	1.000000	-0.222779
4.555556	1.000000	-0.131430
4.666667	1.000000	-0.038461
4.777778	1.000000	0.054984
4.888889	1.000000	0.147750
5.000000	1.000000	0.238693
5.111111	1.000000	0.326694
5.222222	1.000000	0.410665
5.333333	1.000000	0.489571
5.444444	1.000000	0.562439
5.555556	1.000000	0.628371
5.666667	1.000000	0.686553
5.777778	1.000000	0.736268
5.888889	1.000000	0.776902
6.000000	1.000000	0.807955
6.111111	1.000000	0.829044
6.222222	1.000000	0.839908
6.333333	1.000000	0.840413
6.444444	1.000000	0.830554
6.555556	1.000000	0.810451
6.666667	1.000000	0.780353
6.777778	1.000000	0.740631
6.888889	1.000000	0.691775
7.000000	1.000000	0.634387
7.111111	1.000000	0.569175
7.222222	1.000000	0.496944
7.333333	1.000000	0.418584
7.444444	1.000000	0.335061
7.555556	1.000000	0.247406
7.666667	1.000000	0.156700
7.777778	1.000000	0.064061
7.888889	1.000000	-0.029367
8.000000	1.000000	-0.122434
8.111111	1.000000	-0.213991
8.222222	1.000000	-0.302908
8.333333	1.000000	-0.388090
8.444444	1.000000	-0.468485
8.555556	1.000000	-0.543103
8.666667	1.000000	-0.611022
8.777778	1.000000	-0.671406
8.888889	1.000000	-0.723509
9.000000	1.000000	-0.766690
9.111111	1.000000	-0.800414
9.222222	1.000000	-0.824268
9.333333	1.000000	-0.837955
9.444444	1.000000	-0.841308
9.555556	1.000000	-0.834285
9.666667	1.000000	-0.816973
9.777778	1.000000	-0.789586
9.888889	1.000000	-0.752460
10.000000	1.000000	-0.706054
0.000000	1.111111	0.896192
0.111111	1.111111	0.890666
0.222222	1.111111	0.874155
0.333333	1.111111	0.846863
0.444444	1.111111	0.809127
0.555556	1.111111	0.761412
0.666667	1.111111	0.704306
0.777778	1.111111	0.638514
0.888889	1.111111	0.564848
1.000000	1.111111	0.484215
1.111111	1.111111	0.397610
1.222222	1.111111	0.306102
1.333333	1.111111	0.210818
1.444444	1.111111	0.112935
1.555556	1.111111	0.013658
1.666667	1.111111	-0.085787
1.777778	1.111111	-0.184174
1.888889	1.111111	-0.280289
2.000000	1.111111	-0.372948
2.111111	1.111111	-0.461007
2.222222	1.111111	-0.543380
2.333333	1.111111	-0.619052
2.444444	1.111111	-0.687089
2.555556	1.111111	-0.746653
2.666667	1.111111	-0.797008
2.777778	1.111111	-0.837533
2.888889	1.111111	-0.867729
3.000000	1.111111	-0.887224
3.111111	1.111111	-0.895776
3.222222	1.111111	-0.893281
3.333333	1.111111	-0.879769
3.444444	1.111111	-0.855406
3.555556	1.111111	-0.820494
3.666667	1.111111	-0.775463
3.777778	1.111111	-0.720868
3.888889	1.111111	-0.657383
4.000000	1.111111	-0.585790
4.111111	1.111111	-0.506973
4.222222	1.111111	-0.421903
4.333333	1.111111	-0.331630
4.444444	1.111111	-0.237267
4.555556	1.111111	-0.139977
4.666667	1.111111	-0.040962
4.777778	1.111111	0.058559
4.888889	1.111111	0.157358
5.000000	1.111111	0.254216
5.111111	1.111111	0.347939
5.222222	1.111111	0.437370
5.333333	1.111111	0.521408
5.444444	1.111111	0.599015
5.555556	1.111111	0.669234
5.666667	1.111111	0.731200
5.777778	1.111111	0.784148
5.888889	1.111111	0.827425
6.000000	1.111111	0.860497
6.111111	1.111111	0.882957
6.222222	1.111111	0.894527
6.333333	1.111111	0.895066
6.444444	1.111111	0.884565
6.555556	1.111111	0.863155
6.666667	1.111111	0.831100
6.777778	1.111111	0.788795
6.888889	1.111111	0.736761
7.000000	1.111111	0.675641
7.111111	1.111111	0.606189
7.222222	1.111111	0.529260
7.333333	1.111111	0.445804
7.444444	1.111111	0.356850
7.555556	1.111111	0.263495
7.666667	1.111111	0.166890
7.777778	1.111111	0.068227
7.888889	1.111111	-0.031277
8.000000	1.111111	-0.130396
8.111111	1.111111	-0.227907
8.222222	1.111111	-0.322606
8.333333	1.111111	-0.413327
8.444444	1.111111	-0.498951
8.555556	1.111111	-0.578421
8.666667	1.111111	-0.650757
8.777778	1.111111	-0.715068
8.888889	1.111111	-0.770560
9.000000	1.111111	-0.816548
9.111111	1.111111	-0.852466
9.222222	1.111111	-0.877870
9.333333	1.111111	-0.892448
9.444444	1.111111	-0.896019
9.555556	1.111111	-0.888539
9.666667	1.111111	-0.870102
9.777778	1.111111	-0.840933
9.888889	1.111111	-0.801393
10.000000	1.111111	-0.751969
0.000000	1.222222	0.939861
0.111111	1.222222	0.934065
0.222222	1.222222	0.916750
0.333333	1.222222	0.888128
0.444444	1.222222	0.848553
0.555556	1.222222	0.798513
0.666667	1.222222	0.738625
0.777778	1.222222	0.669627
0.888889	1.222222	0.592371
1.000000	1.222222	0.507809
1.111111	1.222222	0.416984
1.222222	1.222222	0.321017
1.333333	1.222222	0.221091
1.444444	1.222222	0.118437
1.555556	1.222222	0.014324
1.666667	1.222222	-0.089967
1.777778	1.222222	-0.193148
1.888889	1.222222	-0.293946
2.000000	1.222222	-0.391120
2.111111	1.222222	-0.483470
2.222222	1.222222	-0.569857
2.333333	1.222222	-0.649216
2.444444	1.222222	-0.720569
2.555556	1.222222	-0.783035
2.666667	1.222222	-0.835843
2.777778	1.222222	-0.878343
2.888889	1.222222	-0.910011
3.000000	1.222222	-0.930455
3.111111	1.222222	-0.939424
3.222222	1.222222	-0.936807
3.333333	1.222222	-0.922637
3.444444	1.222222	-0.897087
3.555556	1.222222	-0.860474
3.666667	1.222222	-0.813249
3.777778	1.222222	-0.755994
3.888889	1.222222	-0.689415
4.000000	1.222222	-0.614334
4.111111	1.222222	-0.531676
4.222222	1.222222	-0.442461
4.333333	1.222222	-0.347789
4.444444	1.222222	-0.248828
4.555556	1.222222	-0.146798
4.666667	1.222222	-0.042958
4.777778	1.222222	0.061413
4.888889	1.222222	0.165025
5.000000	1.222222	0.266603
5.111111	1.222222	0.364892
5.222222	1.222222	0.458682